288
Lattice="19.15342670768738 0.0 0.0 0.0 22.116480972793326 0.0 0.0 0.0 24.030578670826067" Properties=species:S:1:pos:R:3:forces:R:3:magmoms:R:1 energy=-252805.15156925883 free_energy=-252805.15156925883 pbc="T T T"
S        1.59611825       0.00000000       0.00000000       0.03974925      -0.46289730       0.20087875       0.00000000
S        0.00000000       2.76455964       0.00000000      -0.03657549       0.27908528       0.04304258       0.00000000
S        1.59611825       5.52911737       0.00000000       0.27709062       0.16776525      -0.76294144       0.00000000
S        0.00000000       8.29367701       0.00000000       0.74682474       0.35476981      -0.63871088       0.00000000
S        1.59611825      11.05823666       0.00000000       0.84192701       0.74162159      -0.82352537       0.00000000
S        0.00000000      13.82279630       0.00000000       1.42831723      -0.62589290      -1.43277655       0.00000000
S        1.59611825      16.58735403       0.00000000      -0.20151227       0.05178562      -0.11390347       0.00000000
S        0.00000000      19.35191367       0.00000000       0.26901118      -0.54540760      -1.88375884       0.00000000
S        4.78835668       0.00000000       0.00000000      -0.26850210      -0.20867073      -0.08907304       0.00000000
S        3.19223842       2.76455964       0.00000000       0.12168260      -0.68028330       0.45087893       0.00000000
S        4.78835668       5.52911737       0.00000000      -0.00995094      -0.13896864      -1.28061455       0.00000000
S        3.19223842       8.29367701       0.00000000      -0.64448815       0.37157069      -1.29179602       0.00000000
S        4.78835668      11.05823666       0.00000000       0.77965155       0.32802700      -0.94730830       0.00000000
S        3.19223842      13.82279630       0.00000000       0.07759307       0.03523465      -1.49307097       0.00000000
S        4.78835668      16.58735403       0.00000000      -0.66968598       0.02829602      -1.17599019       0.00000000
S        3.19223842      19.35191367       0.00000000       0.19838323      -0.06354533      -1.12646817       0.00000000
S        7.98059510       0.00000000       0.00000000      -0.83790221      -0.09976703      -1.31826347       0.00000000
S        6.38447493       2.76455964       0.00000000       0.63558082       0.12536802      -0.29817058       0.00000000
S        7.98059510       5.52911737       0.00000000      -1.01970877      -0.47624775      -1.02645149       0.00000000
S        6.38447493       8.29367701       0.00000000       0.09039099       0.12997081      -0.93794383       0.00000000
S        7.98059510      11.05823666       0.00000000       0.93023155      -0.17372533      -0.63465573       0.00000000
S        6.38447493      13.82279630       0.00000000       0.18618592      -0.77314563      -0.23215287       0.00000000
S        7.98059510      16.58735403       0.00000000      -0.51102835      -0.31798890      -2.49902588       0.00000000
S        6.38447493      19.35191367       0.00000000       0.68695454       0.10029076      -1.18587145       0.00000000
S       11.17283161       0.00000000       0.00000000       0.94943795      -0.43356230      -0.93858867       0.00000000
S        9.57671335       2.76455964       0.00000000      -0.07477874       0.38862636      -0.69978563       0.00000000
S       11.17283161       5.52911737       0.00000000       0.17950902       0.03157083      -1.49428659       0.00000000
S        9.57671335       8.29367701       0.00000000       1.26539927      -0.68292202      -0.63483622       0.00000000
S       11.17283161      11.05823666       0.00000000      -0.33874953       0.61973588       0.45868506       0.00000000
S        9.57671335      13.82279630       0.00000000       0.09305311      -0.41913584      -0.73480097       0.00000000
S       11.17283161      16.58735403       0.00000000       0.32137144       0.35850151      -1.34956742       0.00000000
S        9.57671335      19.35191367       0.00000000      -0.11402843       1.26728235      -2.30607822       0.00000000
S       14.36507003       0.00000000       0.00000000       0.41653285      -0.09193236      -1.28239889       0.00000000
S       12.76895178       2.76455964       0.00000000      -0.50983279      -0.35699279      -1.16106416       0.00000000
S       14.36507003       5.52911737       0.00000000      -0.56110058       0.02160652      -0.08648805       0.00000000
S       12.76895178       8.29367701       0.00000000      -0.59503426      -0.26868928      -0.74650643       0.00000000
S       14.36507003      11.05823666       0.00000000       0.07063257       0.84535429      -2.26105794       0.00000000
S       12.76895178      13.82279630       0.00000000       0.65417632      -0.02895525      -1.22147918       0.00000000
S       14.36507003      16.58735403       0.00000000      -0.34032536      -0.13775302      -1.41937647       0.00000000
S       12.76895178      19.35191367       0.00000000      -0.25587233       0.07798773      -1.47881086       0.00000000
S       17.55730845       0.00000000       0.00000000      -0.03940678      -0.07484558      -0.50004691       0.00000000
S       15.96119020       2.76455964       0.00000000      -0.14277876      -0.33503223      -0.29068687       0.00000000
S       17.55730845       5.52911737       0.00000000      -0.54271437       0.60371791      -1.32106160       0.00000000
S       15.96119020       8.29367701       0.00000000       0.39648776       1.14256868      -1.75821084       0.00000000
S       17.55730845      11.05823666       0.00000000       0.82217220       1.01793085      -1.57799014       0.00000000
S       15.96119020      13.82279630       0.00000000      -0.03956619       1.09232007      -1.21088237       0.00000000
S       17.55730845      16.58735403       0.00000000       0.24916201      -0.13029708      -1.71580050       0.00000000
S       15.96119020      19.35191367       0.00000000      -0.26491747      -0.46876250      -2.57915174       0.00000000
Mo       1.61360342       3.72381305       1.55022664      -0.38199060      -0.62403656      -0.65051018      -0.00000000
Mo      19.14958261       0.91107296       1.56604737      -0.35044239       0.15520104      -1.04976934      -0.00000000
Mo       1.65747243       9.33842749       1.55296750      -1.12987308      -1.89972642       0.53038541      -0.00000000
Mo      19.12745658       6.42366667       1.48947006       0.77107075       0.86034357       1.62874294      -0.00000000
Mo       1.64871165      14.69475030       1.54907935      -1.19416712       1.37961513      -0.40439956      -0.00000000
Mo       0.08281176      11.98780225       1.54433696      -0.76304660       0.06453829       0.33473835      -0.00000000
Mo       1.59122838      20.16721375       1.53372405       0.26075588       2.36230387      -0.51216118      -0.00000000
Mo      19.06643950      17.54718778       1.51979185       1.48144162      -0.34037703       0.48414310      -0.00000000
Mo       4.84525002       3.68997661       1.51903720      -1.82941729      -1.84676761      -0.31339819      -0.00000000
Mo       3.16911066       0.79855807       1.65421826       0.09049769       1.70154939      -2.45409971      -0.00000000
Mo       4.73647387       9.23152072       1.47482918       1.92868810      -0.93440240      -0.51719308      -0.00000000
Mo       3.22763587       6.48825777       1.50012128      -1.06283208      -0.17210399       1.30944844      -0.00000000
Mo       4.74320439      14.73302843       1.50472959       2.02572693       0.07711227      -0.10487478      -0.00000000
Mo       3.27214652      12.03280323       1.52017300      -0.67244066      -1.19450728       0.59158744      -0.00000000
Mo       4.82691252      20.21049284       1.51039901      -1.60146123       1.52220826       0.06867905      -0.00000000
Mo       3.17334165      17.58276144       1.53867904       0.09859126      -1.21484830      -0.28854257      -0.00000000
Mo       7.99306015       3.72891935       1.59300391      -0.78475056      -1.13982377      -1.10403247      -0.00000000
Mo       6.36716981       0.92640720       1.55622741       1.30060230       0.02101620      -0.79709417      -0.00000000
Mo       8.06761486       9.18629948       1.48724443      -0.77407457       0.47973468       0.54741126      -0.00000000
Mo       6.31880741       6.46963681       1.52791482       1.55037315       0.50381769      -0.40956259      -0.00000000
Mo       8.01259473      14.76488632       1.47330074      -0.07635585       0.09516038       1.99642201      -0.00000000
Mo       6.51139703      11.84151604       1.61906023      -2.90140353       2.33258861      -3.34041348      -0.00000000
Mo       8.03131146      20.32011173       1.53728084      -0.98325361      -1.14977214      -0.08095633      -0.00000000
Mo       6.39130121      17.48511919       1.45736700      -0.37560680       0.96282568       1.49989108      -0.00000000
Mo      11.18819266       3.75645815       1.51111343       0.30967035      -2.06180182       0.91400840      -0.00000000
Mo       9.55915924       0.85817886       1.43801055       0.13510170       1.20495187       1.17597399      -0.00000000
Mo      11.23858341       9.26579769       1.58604164      -0.92681276      -0.27843453      -1.34334150      -0.00000000
Mo       9.55559862       6.30589991       1.48933407       0.25095278       3.25432420       0.61578384      -0.00000000
Mo      11.21332578      14.72674993       1.46192360      -0.58627271      -0.04905691       1.95570911      -0.00000000
Mo       9.50320633      12.04102388       1.65414931       1.63376405      -0.85120767      -2.12795322      -0.00000000
Mo      11.14612024      20.21810632       1.53436186       1.89003542       1.04841282      -0.26615391      -0.00000000
Mo       9.50104391      17.58783135       1.39117276       1.07742464      -1.53075897       3.40653043      -0.00000000
Mo      14.28796217       3.59585284       1.50046221       2.40107200       1.48524839       1.21630175      -0.00000000
Mo      12.89143603       0.92180080       1.55302496      -2.46061926       0.08062105      -0.25645751      -0.00000000
Mo      14.35448968       9.27832595       1.44799714       1.75943160      -0.42309817      -0.06477329      -0.00000000
Mo      12.66689657       6.43208077       1.59034158       1.68140479       0.86281980      -1.24168162      -0.00000000
Mo      14.32252452      14.79431556       1.56963481       2.19594501       0.06335352      -1.40448053      -0.00000000
Mo      12.84329963      12.00890167       1.51905061      -1.41913710       0.66777334       0.12921105      -0.00000000
Mo      14.37167796      20.25591327       1.44503602       0.00265724       1.35754247       2.52308832      -0.00000000
Mo      12.81602707      17.56014508       1.49563938      -1.02679216      -0.60133835       1.72176289      -0.00000000
Mo      17.52433200       3.78373646       1.54765242       1.19139315      -2.62781784      -1.27406878      -0.00000000
Mo      15.92581957       0.85126064       1.57474111       0.91944757       1.10497195      -1.36953924      -0.00000000
Mo      17.61701543       9.31202257       1.46801631      -1.60214411      -1.09987268       2.26731241      -0.00000000
Mo      15.96517986       6.57014059       1.49011936       0.29745015      -2.40043410       1.55602083      -0.00000000
Mo      17.67920278      14.73269133       1.46945281      -2.47944925       1.17413874       1.00890577      -0.00000000
Mo      15.97674853      12.03719319       1.46171100       0.81055776      -0.89114641      -0.05641746      -0.00000000
Mo      17.54875645      20.17760449       1.44815420       0.26413174       2.79705993       1.07758739      -0.00000000
Mo      15.95647654      17.50139577       1.44664683      -0.42817172      -0.72604045       1.58787937      -0.00000000
S        1.51025344      22.01232847       3.05982504       0.36728543       0.06359289       0.82656082       0.00000000
S        0.02724192       2.81526451       3.06062948      -0.52299169      -0.22205924       0.12571666       0.00000000
S        1.61695910       5.53697219       3.08812423       0.05217257       0.60831324      -0.37923694       0.00000000
S       19.12218364       8.32321543       3.07168676       0.55122781       0.13688913      -0.49597917       0.00000000
S        1.76447496      11.12597083       3.20776611      -0.77800682       0.06157509      -1.23313733       0.00000000
S       19.13507198      13.80546819       3.03863560       0.97289747       0.16928452       0.96027026       0.00000000
S        1.56240822      16.65529506       3.03176718      -0.15875508      -0.55651811       0.17695823       0.00000000
S       19.12863834      19.47340002       3.02222878      -0.41950248      -1.88832589       0.97834486       0.00000000
S        4.87612725      22.07247597       3.02347950      -0.72417820      -0.57582169       1.34835335       0.00000000
S        3.03822189       2.67753413       3.11833301       1.74232554       0.59609973      -0.28475327       0.00000000
S        4.79641452       5.42727285       2.95128065      -0.40847964       1.54914673       2.33024942       0.00000000
S        3.23394884       8.47278837       3.07739448      -0.41415613      -1.79016966       0.32105314       0.00000000
S        4.91412957      10.89581560       2.98940938      -1.17896059       1.87146794       1.99182333       0.00000000
S        3.26744627      13.86245538       3.01267696      -0.46468704      -0.58438372       1.89173569       0.00000000
S        4.76312587      16.59134560       2.97060838       0.37257753       0.12164300       1.03847679       0.00000000
S        3.17672606      19.37801021       3.14748261       0.31019820      -0.58173317      -0.79181004       0.00000000
S        8.00747310      22.08476481       3.09774308      -0.01989905       0.56158035      -0.25637138       0.00000000
S        6.38178004       2.74102774       3.10162931       0.35410750       0.54423646       0.10398904       0.00000000
S        7.89364046       5.62927447       3.04295087       0.36245330      -0.83889928       0.78045708       0.00000000
S        6.43808154       8.45710171       3.01406559      -0.68761712      -1.81120719       0.24334746       0.00000000
S        7.93358493      10.94765626       3.06782926       2.04018938      -0.22500855       2.00762893       0.00000000
S        6.45084347      13.71579376       3.04621653      -0.19871439       1.12976124       0.00342317       0.00000000
S        7.94966232      16.67630254       3.03402346       0.25352568      -0.69958406      -0.39851328       0.00000000
S        6.35922305      19.39444194       3.02202767       0.97278022      -1.01462493       0.52943796       0.00000000
S       11.17600725       0.02064548       2.94480680       0.19365086      -0.40167008       1.28004042       0.00000000
S        9.63383270       2.64752646       2.95389127      -0.19609547       1.00834064       1.36814878       0.00000000
S       11.07437150       5.57148858       3.11412692       0.69712351      -0.78627266       0.29131396       0.00000000
S        9.69942170       8.17499855       3.03890950      -0.64700217       0.60138154       0.19504929       0.00000000
S       11.19959469      11.17117484       3.09336269       0.12986411      -0.55515491       0.17261204       0.00000000
S        9.64537456      13.91595665       3.11595416      -0.53077725      -0.00803804      -0.34557323       0.00000000
S       11.05155211      16.58001635       2.95697880       0.96826562       0.72196757       0.06185586       0.00000000
S        9.63793728      19.37008644       3.04961818      -0.88402908      -0.52510257       0.50382412       0.00000000
S       14.38973198       0.10767865       3.20726429      -0.03037424      -1.58649278      -0.99149066       0.00000000
S       12.76823927       2.70996663       3.11647704      -0.17087989       0.74511572      -0.22347797       0.00000000
S       14.38683598       5.50467377       2.98273633      -0.34864159       0.06402175       0.69943391       0.00000000
S       12.91754406       8.40849606       2.94207169      -1.47070212      -1.23442879       2.62104504       0.00000000
S       14.47934512      11.12146786       2.93457695      -0.78569750      -0.42791590       2.07453007       0.00000000
S       12.93289553      13.87815545       3.09630082      -1.85875898      -0.87987161       0.24841047       0.00000000
S       14.38107272      16.63418990       3.10460192      -0.22691271      -0.07807360      -0.61563034       0.00000000
S       12.86411941      19.44095795       3.10919874      -0.67930474      -0.83996578      -0.72669480       0.00000000
S       17.50996310      22.06501572       3.01847279       0.65392744      -0.36659997       0.59616400       0.00000000
S       16.10781734       2.69896107       3.03371892      -1.75744826       0.48563742       0.68013649       0.00000000
S       17.56860131       5.46683809       3.07221347      -0.41234118       2.01098191       0.55279721       0.00000000
S       15.91703581       8.44165447       3.02968138       0.84803801      -0.36783744      -0.05593152       0.00000000
S       17.53875261      11.23270713       3.06392770       0.44632397      -1.31703602      -0.14202697       0.00000000
S       16.06753960      13.83882389       2.96101826      -0.65315328       0.37911842       0.97807927       0.00000000
S       17.48101461      16.63050095       3.05797290       0.56955206      -0.51159065      -0.06739633       0.00000000
S       15.99330667      19.29857138       2.95865281      -0.55921185       0.25384142       0.92146178       0.00000000
S       11.93446187      12.47194917       5.70853135      -0.29213208       0.58645732       0.43738964       0.00000000
S       10.35804484      15.38148876       5.73690332      -1.11539880      -0.85523787       0.66698761       0.00000000
S       11.80493491      18.11124662       5.72161697       0.50218427      -1.14925483      -1.00624005       0.00000000
S       10.27672705      20.70333923       5.74090447      -0.41467060       0.20021360      -0.82619572       0.00000000
S       11.85648253       1.44446142       5.78481370       0.30391416       0.37711810      -1.67025006       0.00000000
S       10.38515077       4.38438218       5.73159974      -1.13154173      -1.20527248      -0.94973208       0.00000000
S       11.85696136       7.04068857       5.74704889       0.23751697      -0.83824005      -1.89105563       0.00000000
S       10.39775372       9.80770560       5.83905046      -0.96950052      -0.64334478      -1.76966614       0.00000000
S       15.14766947      12.37156797       5.79480030      -1.17827076       0.74444029      -1.40311759       0.00000000
S       13.25205674      15.18302670       5.69885312       1.30632224       0.38586808      -0.07725342       0.00000000
S       15.03991612      17.93310060       5.59956176       0.05897108       1.17988515      -0.12407630       0.00000000
S       13.38263715      20.83918683       5.75290218       0.19069949      -0.06318229      -1.85171158       0.00000000
S       14.89246921       1.56648216       5.64767517       1.11337483      -0.12984791       0.70828776       0.00000000
S       13.47490112       4.23432657       5.76152313      -1.36274433      -1.41600678      -2.21439268       0.00000000
S       15.18474667       6.97420894       5.68122814      -0.49843303      -0.00045791       0.14510998       0.00000000
S       13.50362360       9.63870342       5.68888951       0.08230564       0.66598514      -0.42877413       0.00000000
S       18.34179067      12.42975608       5.78258999      -1.04063729       0.14219332       0.37778221       0.00000000
S       16.62461319      15.15200006       5.64958668      -0.03080104       0.10988381      -0.02048578       0.00000000
S       18.41868594      18.04426134       5.65188126      -2.28423361      -0.66928772      -1.26699259       0.00000000
S       16.55683113      20.84369938       5.53721544       0.65868629       0.22593749       0.54106115       0.00000000
S       18.20360062       1.56715827       5.74034711      -0.46185960      -1.78621324      -1.98542720       0.00000000
S       16.67025006       4.18005725       5.62024171      -0.38974479       0.29095169       0.49062973       0.00000000
S       18.24797719       7.11648251       5.82996790      -0.23878812      -1.52687455      -1.37110195       0.00000000
S       16.68002980       9.71904821       5.77817512       0.62413992       1.22363196       0.30797882       0.00000000
S        2.27021545      12.59778335       5.83515848       0.52164341       0.41145158      -1.08858040       0.00000000
S        0.71659481      15.26181815       5.67011149      -0.33389965       0.03813923      -1.62639836       0.00000000
S        2.17724280      17.98776065       5.69575601       0.32901790       0.94896512      -0.35528121       0.00000000
S        0.45853304      20.79570664       5.62979544       0.21373838      -0.01021705      -0.83634798       0.00000000
S        2.18531597       1.49393664       5.60185634       0.86432312      -0.94054450      -1.11320411       0.00000000
S        0.82829568       4.10199172       5.64631336      -1.12783446       1.20123251       0.66437254       0.00000000
S        2.28498082       7.01358838       5.75272597       0.07873001      -1.08976670      -1.69275750       0.00000000
S        0.63181026       9.81572897       5.88395758       0.73282816       0.45655696      -0.50648727       0.00000000
S        5.46696259      12.51410586       5.61700478      -0.15657993       1.05958941       0.03600933       0.00000000
S        3.88445667      15.37616027       5.63930320      -0.25093144      -0.71386988       0.07318259       0.00000000
S        5.56722886      18.02794837       5.69071866      -1.11923566      -0.78714478      -0.88150246       0.00000000
S        3.88867043      20.62687492       5.51435008       0.26173522       1.47822979      -0.47019435       0.00000000
S        5.35033354       1.50268784       5.51524454       1.09249670      -0.35123969       0.57950840       0.00000000
S        3.82865699       4.23545279       5.70720976      -0.22887138      -0.17486715      -0.41397923       0.00000000
S        5.45947360       6.99051042       5.60079141      -0.15336116      -0.15836581       0.50251826       0.00000000
S        3.80708640       9.79780902       5.76782461      -0.87945663       0.59057571      -0.47207305       0.00000000
S        8.63972580      12.48946689       5.66213600       0.98739026       0.79833987       0.28569558       0.00000000
S        7.16787307      15.33832076       5.62043516      -0.74529596      -0.71295302       0.70026951       0.00000000
S        8.71130407      17.93540667       5.57801032      -0.05271636       0.68730987       1.51478265       0.00000000
S        7.18489855      20.72566064       5.63332733      -1.04061030      -0.11438555      -0.98332355       0.00000000
S        8.68693134       1.36526200       5.64134687       0.27642213       2.52982410      -0.62068179       0.00000000
S        7.08917164       4.46203208       5.71949094       0.25852879      -1.35528658      -0.99666526       0.00000000
S        8.65906885       6.91441386       5.70053479       0.61283247       1.12233872      -0.90507485       0.00000000
S        7.00974429       9.78298044       5.63388087       0.46943073      -0.49894159       0.77986495       0.00000000
Mo      11.86906825      16.25885169       7.29760497      -0.51182822       0.79137424       0.11939226      -0.00000000
Mo      10.33930704      13.48289767       7.34156017      -0.50612629      -0.50934428      -2.06445854      -0.00000000
Mo      11.80881348      21.71562274       7.22594051       0.85940306      -0.86558271      -0.22409504      -0.00000000
Mo      10.28159585      18.85233292       7.28288748      -1.70915651       1.65845744       0.26625702      -0.00000000
Mo      11.92430290       5.16337886       7.22121536      -0.33411408       1.29848937       1.94030357      -0.00000000
Mo      10.38640915       2.50719122       7.22016001      -2.48475832      -1.17719501       0.08183564      -0.00000000
Mo      12.01356553      10.68293867       7.26354826      -1.67325363       0.51068074       0.60497800      -0.00000000
Mo      10.26555868       7.83833877       7.22138966      -0.05873248       2.44120075       1.08119722      -0.00000000
Mo      14.99639187      16.12737682       7.11511878       0.98520225       0.49908481       0.40345339      -0.00000000
Mo      13.48451614      13.37213724       7.28377811      -0.24016006       0.28187261       0.03561878      -0.00000000
Mo      15.04386747      21.76972925       7.10248327      -0.04979378      -0.43981985       1.60101103      -0.00000000
Mo      13.42169481      18.97472907       7.16774857       0.07684127       0.41631894       0.33499597      -0.00000000
Mo      14.94144644       5.07270845       7.17400791       4.34918298       1.04632560       1.21444798      -0.00000000
Mo      13.40933128       2.36525858       7.35694037       1.41558127       0.19297672      -2.17724821      -0.00000000
Mo      15.02748555      10.59806217       7.27705909       1.89572861      -0.56278311       0.88039714      -0.00000000
Mo      13.48650426       7.81776990       7.18838064       0.48556466       1.59973165       1.54780976      -0.00000000
Mo      18.27100152      16.13592883       7.13560912      -0.90851524       1.35330555       0.65991579      -0.00000000
Mo      16.58943409      13.38054751       7.28329162       2.14329653       0.27893333       0.50929183      -0.00000000
Mo      18.19043264      21.75748063       7.26071930      -0.01312342      -0.40709048      -2.16721911      -0.00000000
Mo      16.70810872      19.02858276       7.09514751      -0.55513203      -1.39134528      -0.16499823      -0.00000000
Mo      18.22558683       5.04927806       7.23380108       1.52154645       1.93969705      -1.33411715      -0.00000000
Mo      16.68519164       2.38955470       7.23925406      -1.90885923      -1.12602671      -0.58302258      -0.00000000
Mo      18.31394542      10.69265520       7.52057959      -2.06856074      -0.17115448      -2.19304738      -0.00000000
Mo      16.68066186       8.01003583       7.33270171      -0.73829047      -1.92041249       0.44603112      -0.00000000
Mo       2.20878083      16.18674670       7.20507094       2.31687994       0.90030211       0.05862578      -0.00000000
Mo       0.66699510      13.56376152       7.22741149       0.57290349      -1.20130553       2.37121815      -0.00000000
Mo       2.19871379      21.62228617       6.90644986       1.13900179       0.53925006       2.93167338      -0.00000000
Mo       0.56702187      19.02183500       7.21195468       2.85886643      -0.95595955       0.63356481      -0.00000000
Mo       2.27802047       5.10913444       7.33667413       0.32350494      -1.14199095      -3.09976028      -0.00000000
Mo       0.66869976       2.27145276       7.14061774       0.45305563       1.85471643       2.48287678      -0.00000000
Mo       2.24229741      10.88119387       7.40808768       0.07299568      -2.36486341      -0.62155930      -0.00000000
Mo       0.76269520       7.87407523       7.22467830      -1.19581057       1.90994501       2.05182388      -0.00000000
Mo       5.46006544      16.13328948       7.21469936       1.42195555       1.81165302      -0.38304269      -0.00000000
Mo       3.95649654      13.56472111       7.25380109      -1.54419556      -0.93937568      -0.40633509      -0.00000000
Mo       5.50064006      21.67016016       7.08137811      -0.11995687       0.01511012      -2.02311366      -0.00000000
Mo       3.87549670      18.98123932       7.12889776       0.34054236      -2.07459794       0.30203135      -0.00000000
Mo       5.41210334       5.12578451       7.20821785       0.54087320       0.27562843      -1.31987221      -0.00000000
Mo       3.87003223       2.31448476       7.16653424      -0.91766914       0.40350379      -1.77601573      -0.00000000
Mo       5.41932227      10.77161329       7.16901461       1.38678440      -2.21169122       0.01892126      -0.00000000
Mo       3.87012608       7.88436445       7.19040516       1.04913993       0.90580916       0.84304544      -0.00000000
Mo       8.62195142      16.24440043       7.28681585       1.54792417      -0.97720304      -0.36354756      -0.00000000
Mo       7.08986499      13.46344737       7.19920233      -0.03002689      -0.39890588      -0.97097402      -0.00000000
Mo       8.61615560      21.75082482       7.11910078       1.86022348      -1.61481168       1.66735757      -0.00000000
Mo       7.09324940      18.89596826       7.16448674       1.78022077       0.71091260       1.53574563      -0.00000000
Mo       8.75544698       5.24537085       7.29273234      -0.83877895      -0.47903483      -0.94260421      -0.00000000
Mo       7.04645566       2.50941685       7.11232047       0.63610378      -2.43150743      -1.73748801      -0.00000000
Mo       8.64378442      10.70433688       7.19289893       0.62926541       0.53237673       0.57288961      -0.00000000
Mo       7.10662041       7.82212348       7.20539655      -0.95490771       1.97827311      -0.28350192      -0.00000000
S       11.87919466      12.54904362       8.91325014       0.47163776      -0.37107755      -0.40309987       0.00000000
S       10.28307258      15.32018055       8.86177723      -0.11764391       0.27896212       0.03042721       0.00000000
S       11.87919083      18.21436676       8.87525549       0.63361341      -1.32627991      -0.01972345       0.00000000
S       10.28307258      20.80042029       8.74111638      -1.21145084      -0.12256346       0.54469592       0.00000000