498
Lattice="19.15342670768738 0.0 0.0 0.0 22.116480972793326 0.0 0.0 0.0 28.67252655399435" Properties=species:S:1:pos:R:3:REF_forces:R:3:forces:R:3:magmoms:R:1 REF_energy=-294776.8408014359 energy=-294776.8408014359 free_energy=-294776.8408014359 pbc="T T T"
S        1.53030900       0.01723425       0.07210691       0.65454373       0.37979102      -0.67298445       0.65454373       0.37979102      -0.67298445       0.00000000
S       19.12187910       2.76677761       0.03920132       0.34787566       0.29566349       0.41612636       0.34787566       0.29566349       0.41612636       0.00000000
S        1.56845496       5.50745868       0.09505463      -0.00344631      -0.52238568      -0.17728091      -0.00344631      -0.52238568      -0.17728091       0.00000000
S        0.07453173       8.27507137       0.18266048      -1.05077541      -0.23549402      -2.24148825      -1.05077541      -0.23549402      -2.24148825       0.00000000
S        1.75537325      10.98335059       0.16294969      -1.59146838      -0.07384671      -1.84346837      -1.59146838      -0.07384671      -1.84346837       0.00000000
S        0.03758285      13.92537439      28.66240397      -0.00220986      -0.78080649      -0.08808522      -0.00220986      -0.78080649      -0.08808522       0.00000000
S        1.57151376      16.48143175      28.63895060       0.00507330       1.24551333      -0.31461895       0.00507330       1.24551333      -0.31461895       0.00000000
S       19.12453568      19.38011900       0.10423103       0.48532143       0.29267716      -0.65906424       0.48532143       0.29267716      -0.65906424       0.00000000
S        4.82326763      22.07561522       0.11561774      -0.24065577      -0.16614571      -1.19347009      -0.24065577      -0.16614571      -1.19347009       0.00000000
S        3.26539494       2.85858190       0.22576719      -1.19639164      -0.88639759      -2.14753526      -1.19639164      -0.88639759      -2.14753526       0.00000000
S        4.77765183       5.56984522      28.46972241      -0.20577027      -0.11519751       2.33661135      -0.20577027      -0.11519751       2.33661135      -0.00000000
S        3.34178263       8.23102807       0.12142123      -1.14237996       0.25396354      -0.14983978      -1.14237996       0.25396354      -0.14983978       0.00000000
S        4.72531126      11.14006009       0.05715766       0.89007889      -1.48324782       0.08076169       0.89007889      -1.48324782       0.08076169       0.00000000
S        3.22432999      13.83090011      28.62825532      -0.19186703      -0.52249881       0.14097282      -0.19186703      -0.52249881       0.14097282       0.00000000
S        4.79582651      16.50288358       0.05026242      -0.10291226       0.21046408      -0.72188606      -0.10291226       0.21046408      -0.72188606       0.00000000
S        3.24287434      19.40010752       0.12908452      -0.76030143      -0.71196289      -1.04011767      -0.76030143      -0.71196289      -1.04011767       0.00000000
S        8.07287439       0.04610613       0.02634362      -0.77295743       0.53784856      -0.81861739      -0.77295743       0.53784856      -0.81861739       0.00000000
S        6.40378925       2.93484893       0.27677276       0.30628781      -0.83269084      -3.36533030       0.30628781      -0.83269084      -3.36533030       0.00000000
S        7.94826220       5.47619837      28.61805995       0.30136080       0.83352259       0.69536642       0.30136080       0.83352259       0.69536642       0.00000000
S        6.42159236       8.24393939       0.36288274      -0.20263944       0.98749825      -2.60499827      -0.20263944       0.98749825      -2.60499827       0.00000000
S        7.96645221      11.08735561      28.60274871       0.38034766      -0.55718325       1.90519284       0.38034766      -0.55718325       1.90519284      -0.00000000
S        6.40289095      13.68250511       0.16228698       0.94477834       1.75314783      -1.58866176       0.94477834       1.75314783      -1.58866176       0.00000000
S        7.93953973      16.70965632       0.15207246       0.80245852      -1.82306229      -1.12153525       0.80245852      -1.82306229      -1.12153525      -0.00000000
S        6.39947206      19.36481159      28.58418712       0.24278259      -0.31038872       0.89742068       0.24278259      -0.31038872       0.89742068      -0.00000000
S       11.19913118       0.01759625       0.10943119       0.73406024      -0.25129962      -1.32273899       0.73406024      -0.25129962      -1.32273899       0.00000000
S        9.50588973       2.75357324      28.48906546       0.99685218       0.17153372       1.60587607       0.99685218       0.17153372       1.60587607       0.00000000
S       11.16086455       5.39944293       0.24937570       0.53247726       0.56260494      -2.00979175       0.53247726       0.56260494      -2.00979175       0.00000000
S        9.47664245       8.31872970       0.28295357       1.52640687      -0.07737041      -1.95163185       1.52640687      -0.07737041      -1.95163185       0.00000000
S       11.11935332      11.00949502       0.16524810       0.25206504      -0.24731338      -0.76273318       0.25206504      -0.24731338      -0.76273318       0.00000000
S        9.61591850      13.75415042       0.21594722      -0.81701611       0.71285018      -1.15812797      -0.81701611       0.71285018      -1.15812797       0.00000000
S       11.20640948      16.50630055      28.61550297      -0.73974495       0.40345057       1.19042719      -0.73974495       0.40345057       1.19042719      -0.00000000
S        9.54520788      19.36163020       0.18567332       0.90877544       0.05720576      -1.78205963       0.90877544       0.05720576      -1.78205963       0.00000000
S       14.38951555       0.01249570       0.14027970      -0.43392328       0.31078389      -0.40221207      -0.43392328       0.31078389      -0.40221207       0.00000000
S       12.69184583       2.84883664       0.24227553       1.53461409      -0.86709811      -2.67309754       1.53461409      -0.86709811      -2.67309754       0.00000000
S       14.38192313       5.50948128      28.56287893       0.21172700      -0.45684801       1.19904759       0.21172700      -0.45684801       1.19904759      -0.00000000
S       12.82417111       8.32067951       0.11229654      -0.24940318      -0.30847247       0.09270472      -0.24940318      -0.30847247       0.09270472       0.00000000
S       14.34357797      11.10798194      28.59123367       0.18432753      -0.34844413       1.00128193       0.18432753      -0.34844413       1.00128193       0.00000000
S       12.75580295      13.89289976      28.62634956      -0.40191279      -0.25658015       0.50389174      -0.40191279      -0.25658015       0.50389174      -0.00000000
S       14.33321597      16.61470320       0.06467729       0.18671840       1.39948410      -1.14951194       0.18671840       1.39948410      -1.14951194       0.00000000
S       12.79405043      19.33585927       0.13493398      -0.07588380       0.32868443      -0.80487305      -0.07588380       0.32868443      -0.80487305       0.00000000
S       17.53725673       0.01969738       0.07728025      -0.06170468       0.07920232      -0.37859597      -0.06170468       0.07920232      -0.37859597       0.00000000
S       16.01244285       2.77300247       0.10248041      -0.02409561      -0.64470952       0.47180463      -0.02409561      -0.64470952       0.47180463       0.00000000
S       17.57559040       5.44527516       0.03345721       0.69452721       0.41391984       0.16629175       0.69452721       0.41391984       0.16629175       0.00000000
S       15.82656651       8.26852473       0.08329634       1.04810429       1.09074758      -0.86891408       1.04810429       1.09074758      -0.86891408       0.00000000
S       17.49288207      11.08230294       0.05983147       1.00542398      -0.44054053      -1.39260923       1.00542398      -0.44054053      -1.39260923       0.00000000
S       15.92702240      13.81292654       0.14798321       0.77531050      -0.10935133      -2.41412214       0.77531050      -0.10935133      -2.41412214       0.00000000
S       17.57053198      16.60041092       0.12617511      -0.02081102       0.08974410      -2.17668257      -0.02081102       0.08974410      -2.17668257       0.00000000
S       15.94475081      19.35808682       0.05601420      -0.10496143       0.44638130      -0.23112598      -0.10496143       0.44638130      -0.23112598       0.00000000
Mo       1.57109622       3.65184213       1.69851630      -0.16032088       1.32918552      -0.67743992      -0.16032088       1.32918552      -0.67743992      -0.00000000
Mo      19.12765577       0.96537293       1.60615848       0.36608807      -0.07422621       0.46328348       0.36608807      -0.07422621       0.46328348      -0.00000000
Mo       1.59489818       9.13176010       1.63886296       2.23146738       1.17506691       1.36556508       2.23146738       1.17506691       1.36556508      -0.00000000
Mo       0.04577094       6.43449410       1.66061359      -1.31375967      -0.21812905      -0.28271645      -1.31375967      -0.21812905      -0.28271645      -0.00000000
Mo       1.68173790      14.78010563       1.57167848      -2.30939263      -0.82931087      -0.58682756      -2.30939263      -0.82931087      -0.58682756      -0.00000000
Mo       0.01773607      12.01005279       1.52847027       0.81617304       0.42779223       0.04002719       0.81617304       0.42779223       0.04002719      -0.00000000
Mo       1.59456108      20.37430443       1.64896256      -0.29961374      -1.35797133      -0.43110895      -0.29961374      -1.35797133      -0.43110895      -0.00000000
Mo       0.00374258      17.49238217       1.57335249       0.33399479      -0.15147937       0.70366954       0.33399479      -0.15147937       0.70366954      -0.00000000
Mo       4.79424827       3.81984067       1.61069976       0.17260201      -1.10563632       1.30897047       0.17260201      -1.10563632       1.30897047      -0.00000000
Mo       3.20576074       0.91018999       1.59407841       0.02293578       0.83049280       0.76275169       0.02293578       0.83049280       0.76275169      -0.00000000
Mo       4.77941586       9.16908247       1.76780191       0.29295561       0.48265108      -1.68641870       0.29295561       0.48265108      -1.68641870      -0.00000000
Mo       3.14297006       6.37574480       1.63166701       1.96486995       0.18383928       0.14628214       1.96486995       0.18383928       0.14628214       0.00000000
Mo       4.77425209      14.64551067       1.55929388       0.21835685       0.65523458       0.43766398       0.21835685       0.65523458       0.43766398      -0.00000000
Mo       3.20799020      12.00158697       1.61406501       0.63257314       0.75256935       0.47416722       0.63257314       0.75256935       0.47416722      -0.00000000
Mo       4.90468693      20.14702029       1.62100813      -1.56903396       2.24956948      -1.09421394      -1.56903396       2.24956948      -1.09421394      -0.00000000
Mo       3.12433761      17.39616301       1.54495945      -0.15991542       1.19794021      -0.24163690      -0.15991542       1.19794021      -0.24163690      -0.00000000
Mo       8.12385890       3.74175790       1.57861968      -1.45075910      -1.08094036       1.04851464      -1.45075910      -1.08094036       1.04851464      -0.00000000
Mo       6.37543260       0.99847196       1.56710081       0.34959752      -1.05249342       0.17232433       0.34959752      -1.05249342       0.17232433      -0.00000000
Mo       8.00856868       9.23445694       1.78161919      -0.40045086       0.28398529      -0.45715603      -0.40045086       0.28398529      -0.45715603      -0.00000000
Mo       6.32666223       6.35896448       1.63913110       0.81657182      -0.88677399       0.21175143       0.81657182      -0.88677399       0.21175143      -0.00000000
Mo       8.02934057      14.73641092       1.74649372      -0.75951801      -0.75580046      -1.13937228      -0.75951801      -0.75580046      -1.13937228       0.00000000
Mo       6.39830945      11.94362870       1.62173022       0.38750124      -2.02608560      -1.07060761       0.38750124      -2.02608560      -1.07060761      -0.00000000
Mo       7.96368454      20.36666222       1.55563940      -0.55964688      -1.97338364       1.08079098      -0.55964688      -1.97338364       1.08079098      -0.00000000
Mo       6.33889552      17.51029445       1.60553599      -0.24724602       0.70550968      -0.10275234      -0.24724602       0.70550968      -0.10275234      -0.00000000
Mo      11.14143531       3.55676836       1.69854312      -0.83829996       2.14150833      -0.28612856      -0.83829996       2.14150833      -0.28612856      -0.00000000
Mo       9.66488615       0.99390962       1.54094106      -1.70056645      -0.77660300       0.49958668      -1.70056645      -0.77660300       0.49958668      -0.00000000
Mo      11.26427581       9.14789878       1.74036846      -0.99956418      -0.27106112      -0.91681065      -0.99956418      -0.27106112      -0.91681065      -0.00000000
Mo       9.54114736       6.38813132       1.60574094      -0.10023471       1.03964125       0.93500480      -0.10023471       1.03964125       0.93500480      -0.00000000
Mo      11.14677146      14.73927436       1.66249637       1.62727330       0.09320120       0.17521168       1.62727330       0.09320120       0.17521168       0.00000000
Mo       9.57783958      11.97922918       1.71104456       0.31492954      -0.33820034      -0.87733933       0.31492954      -0.33820034      -0.87733933      -0.00000000
Mo      11.20700898      20.29432738       1.62899511      -1.69435801       0.52615672       0.59737936      -1.69435801       0.52615672       0.59737936      -0.00000000
Mo       9.63936804      17.48839826       1.59736323      -0.88706376       0.23633117       2.12381143      -0.88706376       0.23633117       2.12381143       0.00000000
Mo      14.42613690       3.66968164       1.67245615      -0.72808602       0.72923530      -1.72061772      -0.72808602       0.72923530      -1.72061772      -0.00000000
Mo      12.71587189       0.99836662       1.67535598       1.14109055      -1.13399379      -1.03725089       1.14109055      -1.13399379      -1.03725089      -0.00000000
Mo      14.37539947       9.31729168       1.67928052      -0.68416464      -2.24588355      -1.28527442      -0.68416464      -2.24588355      -1.28527442      -0.00000000
Mo      12.90472467       6.37857951       1.61668137      -1.66272393       0.65630082      -0.84993677      -1.66272393       0.65630082      -0.84993677      -0.00000000
Mo      14.35849657      14.83759464       1.48928427      -0.81669498      -2.11928757       1.79135211      -0.81669498      -2.11928757       1.79135211      -0.00000000
Mo      12.79282844      12.02225352       1.53973631       0.90920430      -0.01413593      -0.03739387       0.90920430      -0.01413593      -0.03739387      -0.00000000
Mo      14.36552780      20.30702036       1.69965210       0.30884605      -1.17270509      -1.99816239       0.30884605      -1.17270509      -1.99816239      -0.00000000
Mo      12.66581440      17.48835229       1.63377006       0.54467329       0.27538186      -0.59261948       0.54467329       0.27538186      -0.59261948      -0.00000000
Mo      17.60197233       3.67582606       1.71292351      -1.20402421       0.33427812      -2.14883932      -1.20402421       0.33427812      -2.14883932      -0.00000000
Mo      16.00205978       0.86937787       1.70119587      -0.55116867       1.88907948      -0.82179888      -0.55116867       1.88907948      -0.82179888      -0.00000000
Mo      17.52481658       9.22724376       1.59106366      -0.04040411      -0.30590471      -0.68752070      -0.04040411      -0.30590471      -0.68752070      -0.00000000
Mo      15.99254053       6.43993176       1.50642084      -1.57175547      -0.48686101       0.35148086      -1.57175547      -0.48686101       0.35148086      -0.00000000
Mo      17.57402940      14.77341343       1.55417033       0.04117725       0.15712063       1.59371089       0.04117725       0.15712063       1.59371089      -0.00000000
Mo      15.96847616      11.93523759       1.58851243      -1.17132415       1.10316061      -0.13903780      -1.17132415       1.10316061      -0.13903780      -0.00000000
Mo      17.51780643      20.32033199       1.60041820       1.18137151      -0.02173071       0.89689566       1.18137151      -0.02173071       0.89689566      -0.00000000
Mo      16.03312089      17.54212170       1.58696100      -1.93092470       0.02222744       1.15457470      -1.93092470       0.02222744       1.15457470      -0.00000000
S        1.61699166       0.13489950       3.17117540      -0.06490904      -0.62235429       0.21947271      -0.06490904      -0.62235429       0.21947271       0.00000000
S       19.10939298       2.77863358       3.20760330       0.67988684      -0.33765038       0.83718410       0.67988684      -0.33765038       0.83718410       0.00000000
S        1.59306520       5.52976476       3.28017181      -0.22943985      -0.25854525      -0.53172033      -0.22943985      -0.25854525      -0.53172033       0.00000000
S       19.06730524       8.34057992       3.10794036       0.64001880      -0.35308266       1.55533872       0.64001880      -0.35308266       1.55533872       0.00000000
S        1.65257873      11.11250597       3.11704782      -0.92733598      -0.66472993       0.71708504      -0.92733598      -0.66472993       0.71708504       0.00000000
S        0.02429612      13.91104954       3.10513055       0.15138758      -0.82443580      -0.20423866       0.15138758      -0.82443580      -0.20423866       0.00000000
S        1.46343864      16.53198338       3.19413653       1.18285169       0.16791746      -0.69489308       1.18285169       0.16791746      -0.69489308       0.00000000
S        0.00458725      19.30835111       3.13269808      -0.18354797       0.73276363       0.10699620      -0.18354797       0.73276363       0.10699620       0.00000000
S        4.81074895      22.04692722       3.08165803       0.14442015       0.29604582       0.86340370       0.14442015       0.29604582       0.86340370       0.00000000
S        3.23806683       2.85414022       3.21671650       0.03306336      -0.95238443      -0.50913628       0.03306336      -0.95238443      -0.50913628       0.00000000
S        4.76159934       5.41728051       3.24233613      -0.09420856       1.54613083       0.11787145      -0.09420856       1.54613083       0.11787145       0.00000000
S        3.26428787       8.17113339       3.24257171      -1.01524225       0.44595013      -0.06052634      -1.01524225       0.44595013      -0.06052634       0.00000000
S        4.85927607      11.04807193       3.15587373      -1.03065370       0.21962080       1.05161256      -1.03065370       0.21962080       1.05161256       0.00000000
S        3.13481070      13.86750614       3.10843260       0.95186764      -0.39109359       0.86892514       0.95186764      -0.39109359       0.86892514       0.00000000
S        4.68136755      16.51000100       3.03900526       0.61279107      -0.09998095       1.41796108       0.61279107      -0.09998095       1.41796108       0.00000000
S        3.19049738      19.27155547       3.02443717       0.01332140       0.04699719       1.60210426       0.01332140       0.04699719       1.60210426       0.00000000
S        7.96641773       0.08887956       2.99518988       0.58852294       0.14716480       1.50468362       0.58852294       0.14716480       1.50468362       0.00000000
S        6.40198691       2.73231676       3.18348148       0.24349992       0.97848756      -0.01799592       0.24349992       0.97848756      -0.01799592       0.00000000
S        8.01342024       5.50502619       3.16715510      -0.35684804      -0.01149566       0.32924056      -0.35684804      -0.01149566       0.32924056       0.00000000
S        6.38594783       8.18754596       3.21543131       0.11508155      -0.04349150       1.36666911       0.11508155      -0.04349150       1.36666911       0.00000000
S        8.00537772      11.11232210       3.17918153      -0.26976580      -0.14029044       1.20171125      -0.26976580      -0.14029044       1.20171125       0.00000000
S        6.32966932      13.64910536       3.12036136       0.50517369       2.07855976       1.41437850       0.50517369       2.07855976       1.41437850       0.00000000
S        7.88672033      16.63394474       3.13523399       1.01477148      -0.13161220       0.37978330       1.01477148      -0.13161220       0.37978330       0.00000000
S        6.37305183      19.33501268       3.17841731       0.97805510      -0.04696737       0.24179297       0.97805510      -0.04696737       0.24179297       0.00000000
S       11.18877875       0.02067804       3.19615913      -0.61191638       0.01169749       0.19622788      -0.61191638       0.01169749       0.19622788       0.00000000
S        9.56056318       2.69845542       3.17079999      -0.16167045       0.10248623       0.80035587      -0.16167045       0.10248623       0.80035587       0.00000000
S       11.18425663       5.49404745       3.11564195       0.20626161      -0.10156063       1.06761871       0.20626161      -0.10156063       1.06761871       0.00000000
S        9.63370629       8.24780073       3.25945546      -0.17258350      -0.36568157       0.31499613      -0.17258350      -0.36568157       0.31499613       0.00000000
S       11.29918868      11.06084535       3.09110258      -0.32936449       0.15532446       1.74285107      -0.32936449       0.15532446       1.74285107       0.00000000
S        9.70755807      13.76174092       3.37760720      -0.82711515       0.56943404      -1.19864418      -0.82711515       0.56943404      -1.19864418       0.00000000
S       11.20029379      16.51207340       3.32142254      -0.56657241       0.53811312      -1.10145417      -0.56657241       0.53811312      -1.10145417      -0.00000000
S        9.45913238      19.43098859       3.25800171       0.82740774      -0.35113736      -1.25023002       0.82740774      -0.35113736      -1.25023002      -0.00000000
S       14.26160705       0.01918982       3.10148374       1.12108737       0.29814538       2.06021468       1.12108737       0.29814538       2.06021468       0.00000000
S       12.79151834       2.82379161       3.19372281       0.15339613      -0.35388587       1.37654884       0.15339613      -0.35388587       1.37654884       0.00000000
S       14.41711755       5.49616007       3.13739642       0.71879071       0.29632915       0.67306699       0.71879071       0.29632915       0.67306699       0.00000000
S       12.86320004       8.11646376       3.25833881       0.12709374       0.99767570      -0.31416849       0.12709374       0.99767570      -0.31416849       0.00000000
S       14.38534968      11.08489056       3.15152590      -0.15665886       0.84032650       0.64167562      -0.15665886       0.84032650       0.64167562       0.00000000
S       12.88334945      13.81908436       3.12402732      -0.52889855       0.33254031      -0.22528726      -0.52889855       0.33254031      -0.22528726       0.00000000
S       14.27304548      16.59758770       3.04462105       1.32309509       0.34249897       1.16306397       1.32309509       0.34249897       1.16306397      -0.00000000
S       12.73985389      19.41202670       3.12465747       0.25708512      -0.97220687       1.18086937       0.25708512      -0.97220687       1.18086937       0.00000000
S       17.63704034       0.10840840       3.25226909      -0.46867971      -1.27193836      -0.09637703      -0.46867971      -1.27193836      -0.09637703       0.00000000
S       15.95245624       2.80363263       3.23003771       0.38902333      -0.82807854       0.47753048       0.38902333      -0.82807854       0.47753048       0.00000000
S       17.45877557       5.59947557       3.08309837       1.34972966      -0.39018007       1.19984489       1.34972966      -0.39018007       1.19984489       0.00000000
S       15.94016931       8.24581260       3.14416715       0.10089857       0.38872894      -0.12331499       0.10089857       0.38872894      -0.12331499       0.00000000
S       17.62627994      11.12086070       3.02533738      -0.22771412      -0.45540896       1.71599333      -0.22771412      -0.45540896       1.71599333       0.00000000
S       15.91415513      13.85020677       3.04950900       0.30787366       0.06112875       0.76045750       0.30787366       0.06112875       0.76045750       0.00000000
S       17.57018530      16.63918511       3.23306204       0.00495554      -0.45242134      -0.91379372       0.00495554      -0.45242134      -0.91379372       0.00000000
S       16.01225707      19.38904067       3.14380515      -0.25551829      -0.38739351       0.66515262      -0.25551829      -0.38739351       0.66515262       0.00000000
S       18.74287684       5.50867300      10.11371798      -1.10330253       0.09300220      -2.00165215      -1.10330253       0.09300220      -2.00165215       0.00000000
S       17.15168676       8.32130966       9.95229290       0.17487050      -0.48101843       0.93674981       0.17487050      -0.48101843       0.93674981       0.00000000
S       18.84525190      10.92548234      10.12088136      -0.18053309       1.21252711      -0.64654297      -0.18053309       1.21252711      -0.64654297       0.00000000
S       17.26542364      13.89308171      10.14457798      -0.17671732       1.06536436      -0.92813996      -0.17671732       1.06536436      -0.92813996       0.00000000
S       18.82568859      16.78936713      10.23242134      -0.41085611      -0.51174672       0.25686555      -0.41085611      -0.51174672       0.25686555       0.00000000
S       17.11238584      19.39266641      10.23923038       0.82207758      -0.29244319      -0.44041017       0.82207758      -0.29244319      -0.44041017       0.00000000
S       18.87635515       0.01277150      10.05524065      -0.01679830       0.31155780       1.13934451      -0.01679830       0.31155780       1.13934451       0.00000000
S       17.21151632       2.66319396      10.09382331      -0.62648065       0.70451312      -0.36968555      -0.62648065       0.70451312      -0.36968555       0.00000000
S        2.73374178       5.37098476      10.02902919       0.82917871       2.08999757      -0.03060770       0.82917871       2.08999757      -0.03060770       0.00000000
S        1.32965387       8.18574554       9.96418718      -0.58582251       1.03387786       0.43961519      -0.58582251       1.03387786       0.43961519       0.00000000
S        2.84425322      11.03710468      10.20362033      -0.33666976       0.17685873      -0.54836051      -0.33666976       0.17685873      -0.54836051       0.00000000
S        1.25099840      13.91517711      10.10490549      -0.19080285      -0.29817983       1.39452342      -0.19080285      -0.29817983       1.39452342       0.00000000
S        2.80024439      16.63127666      10.25212256      -0.06820880      -0.57149067       0.49383384      -0.06820880      -0.57149067       0.49383384       0.00000000
S        1.31977836      19.35755435      10.33231221      -0.40506188      -0.19738410       0.09077743      -0.40506188      -0.19738410       0.09077743       0.00000000
S        2.79054127       0.05269299      10.24124915       0.85739683      -0.20005548      -1.22609842       0.85739683      -0.20005548      -1.22609842       0.00000000
S        1.27883216       2.82287225      10.08299971       0.19572497      -0.58036200       0.48310386       0.19572497      -0.58036200       0.48310386       0.00000000
S        5.95867319       5.49599726      10.02646071       0.26023086       0.21815733      -0.10996300       0.26023086       0.21815733      -0.10996300       0.00000000
S        4.41321192       8.27064119      10.02432894       0.24383134      -0.16952954       1.11671546       0.24383134      -0.16952954       1.11671546       0.00000000
S        5.90400356      11.04917134      10.18737823       0.24778390       1.04197144       0.00846587       0.24778390       1.04197144       0.00846587       0.00000000
S        4.42552948      13.80217189      10.15605471      -0.85075490       0.01466326       0.78933278      -0.85075490       0.01466326       0.78933278       0.00000000
S        5.97916735      16.56400408      10.39693778       0.38513531       0.08510069      -1.07214822       0.38513531       0.08510069      -1.07214822       0.00000000
S        4.51594323      19.33473496      10.25462399      -0.46771015       0.37672421       0.41407128      -0.46771015       0.37672421       0.41407128       0.00000000
S        6.12488088       0.10857695      10.21562953      -0.96327588      -0.45820298      -0.24490478      -0.96327588      -0.45820298      -0.24490478       0.00000000
S        4.43779534       2.70383562      10.16217232      -1.09014003       0.10363603      -0.68454388      -1.09014003       0.10363603      -0.68454388       0.00000000
S        9.22662894       5.50980305       9.95830324      -0.05338253       0.30942969       1.27360572      -0.05338253       0.30942969       1.27360572       0.00000000
S        7.60845360       8.39633172      10.08661971      -0.18874443      -0.34666775       0.30567023      -0.18874443      -0.34666775       0.30567023       0.00000000
S        9.11361989      11.04253659      10.18144833       0.48345610       0.42906981      -0.75579506       0.48345610       0.42906981      -0.75579506       0.00000000