108
Lattice="19.194455933359862 0.0 0.0 0.0 16.622878699687977 0.0 0.0 0.0 20.000008859971107" Properties=species:S:1:pos:R:3:forces:R:3 energy=-94785.80363383965 pbc="T T T"
S       19.09284816       3.73963474      19.97317501       0.68058592      -0.14536066       0.16518412
S        1.58820303       0.78680570      19.85985670      -0.00156863       0.37514761      -0.77229794
S        0.00851274       9.31391396       0.13587947      -0.27485041      -0.36695633       0.43989107
S        1.55284108       6.46469276       0.26158396      -0.15072527      -0.12749458      -0.46190897
S       19.16770462      14.71992690      19.80605848       0.46050103       0.30126721       0.19218405
S        1.68985303      12.07353160       0.00123036      -0.37033604       0.07806203      -1.35427074
S        3.06796698       3.66460361       0.03009499       0.57718386       0.50643739      -0.26632181
S        4.88482972       0.84396679       0.11236051      -0.87834540       0.43063253       0.63735231
S        3.07230301       9.27446743      19.92221181       0.62992465      -0.19829556      -0.60023843
S        4.70044010       6.53904056      19.88397453       0.10169536       0.30709333      -0.38717265
S        3.24089943      14.70949088       0.11451604      -0.09871699       0.40786129      -0.46786827
S        4.81430353      11.87906105       0.12697516      -0.03344902       0.12377831      -0.08621706
S        6.44628719       3.79800124       0.07746499      -0.70074568      -0.23044155      -1.12398089
S        8.05142933       0.82840777      19.82660998      -0.41621275       0.05164112      -0.99882627
S        6.41847635       9.28377482       0.17808232      -0.53291718      -0.09831693      -0.39988882
S        8.01274866       6.50937553       0.04984416      -0.25393937       0.23896296       0.35799938
S        6.45694588      14.73637847      19.66380837       0.01202171       0.11356357       0.70268918
S        8.00648935      11.94182308      19.93966533       0.46575045       0.40125150      -0.05347972
S        9.47724342       3.75437032      19.87882658       0.28367650       0.01192092       0.50875061
S       11.12345977       0.96345804       0.07166250       0.56592140       0.05131973       0.28688292
S        9.64497801       9.15349437      19.91976260       0.45939186      -0.14545733      -0.58319665
S       11.22790833       6.50837166      19.94007417      -0.34233082      -0.10693295      -0.92415989
S        9.76736379      14.78172153       0.09001048      -0.19650427      -0.40527631      -0.41731395
S       11.27790221      11.89837835       0.11464081       0.05593898       0.56993335      -0.27161365
S       12.63957610       3.65674348       0.00133593       0.50759104       0.12447045       0.30189122
S       14.42960308       0.91124144      19.94690740      -0.12877319       0.68098444      -0.86847777
S       12.76715398       9.29027215       0.09490699       0.36047561      -0.58394946       0.86551920
S       14.48987175       6.45692860       0.03541185      -1.08095193      -0.38729530      -0.33034048
S       12.82536308      14.90884833      19.84605973      -0.04335086      -0.15894740       0.14604020
S       14.42706557      12.08330734       0.03979011       0.21948711      -0.52945570       0.03029737
S       15.82316857       3.71105227      19.86132892      -0.20711650       0.35684495      -0.19754583
S       17.66304354       1.05039357       0.14523869      -0.87795383      -0.55193100      -0.24460318
S       16.00661574       9.21260370      19.91324032       0.16228058       0.49750229      -0.70595448
S       17.67345270       6.45427209      19.91294665      -0.24797184       0.60417119      -0.46596077
S       16.05574395      14.80506967       0.03414310      -0.13985439       0.11935755       0.28923291
S       17.64835402      11.90552445       0.05467349       0.09680178       0.37374507       0.23054722
Mo       0.08959588      16.46221343       1.48917691       0.73447187      -0.15779374      -0.04153900
Mo       1.65777141       2.45912076       1.53011485       0.03063032       0.47255796       0.02635381
Mo      18.91676014       5.46891702       1.66652025       0.31169201       0.51797367      -1.09981380
Mo       1.74165695       8.42305703       1.66204218      -0.12528214       0.09594277       0.03350944
Mo       0.23681928      11.26028937       1.63717768      -1.11200315      -0.81501142      -0.10301588
Mo       1.47819192      13.85061959       1.59134324      -0.52975987       0.88498245      -0.73956214
Mo       2.90648018      16.58757818       1.59749506       0.78485521      -0.11860550       0.43754905
Mo       4.79176540       2.93527187       1.51376309       0.14742963       0.10589551      -0.03854495
Mo       3.38461792       5.58941021       1.60518436      -0.18419486       0.13900746       0.55242723
Mo       4.59393390       8.33003494       1.57979202      -0.47397824      -0.49460826      -0.05679567
Mo       2.98093931      10.94247717       1.59122807       1.02078426      -0.62721625      -0.78218383
Mo       5.09205883      13.85872925       1.44064181       0.88528327      -0.10447035      -0.02421979
Mo       6.63107030      16.43243323       1.47316298      -0.01046645       0.17357749      -0.33194973
Mo       7.99755625       2.54319631       1.43214442       0.10357175      -0.14602683       0.92064802
Mo       6.19452695       5.70626414       1.51315463      -0.56942427       0.29708351       1.30241673
Mo       8.14454931       8.50590414       1.57552509      -0.48013115      -0.56982228       1.39663506
Mo       6.62362285      11.21501733       1.65799407       0.15818352      -0.25867972      -0.09050000
Mo       7.92256351      13.97246024       1.44095660      -0.16129430      -0.44452394       0.59843712
Mo       9.43948793       0.02646340       1.54813268       0.09422656       0.41063114       0.86096295
Mo      10.91490625       2.88935105       1.57417764       0.16530008       0.23679860      -0.70979854
Mo       9.73082522       5.59548142       1.59861794       0.45952041       0.02629673      -0.72035909
Mo      11.10276815       8.12585967       1.65860253       0.54849524       0.56822357      -0.68198511
Mo       9.55632074      10.86649016       1.49412140      -0.00846459       0.33064258       1.43702195
Mo      11.52811729      13.83822957       1.56289322       0.10391653       0.32298892       0.37802801
Mo      12.95129983       0.02716975       1.55898523       0.04002796      -0.41602969      -0.36613486
Mo      14.34188825       2.68302600       1.60057002       0.00800282       0.07784246      -0.37292206
Mo      12.58941523       5.52313176       1.53728590      -0.14333900      -0.05794444       0.64802727
Mo      14.60712684       8.27924257       1.54063149      -0.37202449       0.46688714       0.21501210
Mo      12.94975275      11.19763867       1.70853307       0.52772818       0.46403527      -0.98779315
Mo      14.30041287      14.01090481       1.53467353      -0.71370867      -0.70057470       0.41768882
Mo      15.81286114       0.02403914       1.60109786      -0.46376016       0.05806271       0.08556991
Mo      17.34870553       3.09381423       1.45286868       0.95281098      -1.01041063       0.79062913
Mo      16.14045100       5.50567824       1.53090950       0.12171422       0.54487512      -0.01266988
Mo      17.39941345       8.22188954       1.56820241       0.08936692       0.05535662      -0.23237219
Mo      15.94591327      10.90600194       1.63232724       0.06895570      -0.60123319      -0.50313404
Mo      17.83580324      13.80617483       1.51407788      -0.18275401       0.38372069       0.27049188
S       19.05672420       1.85850895       2.84826340      -0.23348573      -0.07681865       0.76097712
S        1.48970092       4.55499987       3.02530154       0.87451086      -0.16585261      -0.34489678
S       19.13713361       7.41771669       3.08226493       0.30407049      -0.02220739       0.24235296
S        1.59592688      10.19403351       3.27735930      -0.43640208      -0.14875400       1.13361635
S        0.07272971      12.98771363       3.21858395      -0.64238035      -0.29412212       1.46714088
S        1.50767653      15.67064174       3.29279548       0.29734731       0.00057747      -0.37857026
S        3.19575599       1.83078064       3.16245361      -0.06603004      -0.28105474      -0.27562792
S        4.84989965       4.58015228       3.22926375      -0.08650091       0.20510127       0.04791662
S        3.13282504       7.40699275       3.26681194       0.39101363      -0.57414173       0.27875566
S        4.69700429      10.26140797       3.13357363       0.83923301      -0.35645157      -0.42829591
S        3.29655567      12.90999144       2.88237770       0.29207115       0.89451173       0.96190240
S        4.81958968      15.62632174       2.97169718      -0.08506932       0.50737584       0.09433275
S        6.39282872       1.73465097       3.01590010      -0.29521921      -0.06284367      -0.20979430
S        7.93398421       4.56791390       2.90703874      -0.14089131       0.37011801      -0.09110061
S        6.26436022       7.54951926       3.11876703       0.81543874      -0.63860623      -0.33429766
S        8.07865475      10.28907486       3.30929503       0.10613925      -0.68905436      -0.40298108
S        6.53797335      13.02619276       3.16374539      -0.25214474      -0.02246270       0.45776538
S        8.05869443      15.62056916       3.22321942       0.08380434      -0.04448754      -0.13018652
S        9.45078770       1.94847721       3.17992632       0.18670426      -0.77795488       0.16055562
S       11.12299143       4.57713491       3.23475528       0.48209290       0.37537515       0.24750725
S        9.58738121       7.33834570       3.23315447      -0.60137743       0.10944209       0.63437805
S       11.33404215      10.07302782       3.13006296      -0.93839686       0.07435013      -0.30570159
S        9.67274663      12.93032413       2.94846038       0.18844566       0.05233635      -0.56491533
S       11.26770419      15.75126997       3.05378036      -0.50594142      -0.26971515       0.04503159
S       12.66160750       1.95646594       3.10278572       0.36362855      -0.64383508      -0.16045483
S       14.44825049       4.70188352       2.99624114      -0.90877312      -0.56895068       0.22849317
S       12.92941239       7.34859553       3.12732391      -0.92530789      -0.22394437      -0.42746493
S       14.44842516      10.02511270       3.22139786      -0.03317469       0.22424956       0.38827000
S       12.90336743      12.85085716       3.35355745      -0.00995505       0.87101159      -0.47624981
S       14.30221715      15.68656930       3.21755897       0.87733265       0.39128693       0.80184969
S       16.03029978       1.97890426       3.13203231      -0.56868123      -0.67473589       0.18941548
S       17.56549156       4.59579001       3.29481666      -0.69728909      -0.15848691       0.58296062
S       15.98134816       7.30615275       3.20505762       0.21927113      -0.04794902       0.47862628
S       17.63612140      10.11950335       3.15238420       0.05884689       0.11527875      -0.61693980
S       15.98924092      12.91083408       2.95369854       0.47059878       0.45499579       0.21790408
S       17.57336896      15.76928397       3.04131740       0.08747639      -0.70385055       0.07878734
