
     Program PWSCF v.7.3.1 starts on 12Nov2025 at 18:44:25 

     This program is part of the open-source Quantum ESPRESSO suite
     for quantum simulation of materials; please cite
         "P. Giannozzi et al., J. Phys.:Condens. Matter 21 395502 (2009);
         "P. Giannozzi et al., J. Phys.:Condens. Matter 29 465901 (2017);
         "P. Giannozzi et al., J. Chem. Phys. 152 154105 (2020);
          URL http://www.quantum-espresso.org", 
     in publications or presentations arising from this work. More details at
     http://www.quantum-espresso.org/quote

     Parallel version (MPI & OpenMP), running on      64 processor cores
     Number of MPI processes:                 8
     Threads/MPI process:                     8

     MPI processes distributed on     2 nodes
     501941 MiB available memory on the printing compute node when the environment starts
 
     Waiting for input...
     Reading input from standard input

     Current dimensions of program PWSCF are:
     Max number of different atomic species (ntypx) = 10
     Max number of k-points (npk) =  40000
     Max angular momentum in pseudopotentials (lmaxx) =  4
     file O.pbe-n-kjpaw_psl.1.0.0.UPF: wavefunction(s)  2S 2P renormalized
     file H.pbe-kjpaw_psl.1.0.0.UPF: wavefunction(s)  1S renormalized

     gamma-point specific algorithms are used
 
     K-points division:     npool     =       2
     R & G space division:  proc/nbgrp/npool/nimage =       4
     Subspace diagonalization in iterative solution of the eigenvalue problem:
     a serial algorithm will be used

 
     Parallelization info
     --------------------
     sticks:   dense  smooth     PW     G-vecs:    dense   smooth      PW
     Min        9062    4529   1130              1454466   514179   64282
     Max        9064    4530   1132              1454472   514186   64284
     Sum       36253   18119   4523              5817877  2056729  257131
 
     Using Slab Decomposition
 


     bravais-lattice index     =            0
     lattice parameter (alat)  =      36.2723  a.u.
     unit-cell volume          =   43063.4511 (a.u.)^3
     number of atoms/cell      =          108
     number of atomic types    =            4
     number of electrons       =       936.00
     number of Kohn-Sham states=          562
     kinetic-energy cutoff     =      50.0000  Ry
     charge density cutoff     =     400.0000  Ry
     scf convergence threshold =      1.0E-06
     mixing beta               =       0.2000
     number of iterations used =            8  local-TF  mixing
     energy convergence thresh.=      1.0E-04
     force convergence thresh. =      1.0E-03
     Exchange-correlation= SLA  PW   PBX  PBC
                           (   1   4   3   4   0   0   0)
     nstep                     =        10000


     GPU acceleration is ACTIVE.  4 visible GPUs per MPI rank
     GPU-aware MPI enabled


     celldm(1)=  36.272265  celldm(2)=   0.000000  celldm(3)=   0.000000
     celldm(4)=   0.000000  celldm(5)=   0.000000  celldm(6)=   0.000000

     crystal axes: (cart. coord. in units of alat)
               a(1) = (   1.000000   0.000000   0.000000 )  
               a(2) = (   0.000000   0.866025   0.000000 )  
               a(3) = (   0.000000   0.000000   1.041968 )  

     reciprocal axes: (cart. coord. in units 2 pi/alat)
               b(1) = (  1.000000  0.000000  0.000000 )  
               b(2) = (  0.000000  1.154701  0.000000 )  
               b(3) = (  0.000000  0.000000  0.959722 )  


     PseudoPot. # 1 for Mo read from file:
     /leonardo/home/userexternal/apacini0/PSEUDO/Mo.pbe-spn-rrkjus_psl.0.2.UPF
     MD5 check sum: fc6921ed78563293cf4f0ffad66b730e
     Pseudo is Ultrasoft + core correction, Zval = 14.0
     Generated using "atomic" code by A. Dal Corso  v.5.0.2 svn rev. 9415
     Using radial grid of 1229 points,  6 beta functions with: 
                l(1) =   0
                l(2) =   0
                l(3) =   1
                l(4) =   1
                l(5) =   2
                l(6) =   2
     Q(r) pseudized with 0 coefficients 


     PseudoPot. # 2 for S  read from file:
     /leonardo/home/userexternal/apacini0/PSEUDO/S.pbe-n-rrkjus_psl.0.1.UPF
     MD5 check sum: bcce8fa2324dad47c8296339772e3939
     Pseudo is Ultrasoft + core correction, Zval =  6.0
     Generated using "atomic" code by A. Dal Corso  v.5.0.2 svn rev. 9415
     Using radial grid of 1151 points,  4 beta functions with: 
                l(1) =   0
                l(2) =   0
                l(3) =   1
                l(4) =   1
     Q(r) pseudized with 0 coefficients 


     PseudoPot. # 3 for O  read from file:
     /leonardo/home/userexternal/apacini0/PSEUDO/O.pbe-n-kjpaw_psl.1.0.0.UPF
     MD5 check sum: e99d9cef9b487d1ca56f5b95ecd0fd7a
     Pseudo is Projector augmented-wave + core cor, Zval =  6.0
     Generated using &quot;atomic&quot; code by A. Dal Corso  v.6.3
     Shape of augmentation charge: PSQ
     Using radial grid of 1095 points,  4 beta functions with: 
                l(1) =   0
                l(2) =   0
                l(3) =   1
                l(4) =   1
     Q(r) pseudized with 0 coefficients 


     PseudoPot. # 4 for H  read from file:
     /leonardo/home/userexternal/apacini0/PSEUDO/H.pbe-kjpaw_psl.1.0.0.UPF
     MD5 check sum: d81a744832360e4a8af0b0b5b123bc2a
     Pseudo is Projector augmented-wave, Zval =  1.0
     Generated using &quot;atomic&quot; code by A. Dal Corso  v.6.3MaX
     Shape of augmentation charge: PSQ
     Using radial grid of  929 points,  2 beta functions with: 
                l(1) =   0
                l(2) =   0
     Q(r) pseudized with 0 coefficients 


     atomic species   valence    mass     pseudopotential
     Mo               14.00    95.95000     Mo( 1.00)
     S                 6.00    32.06500     S ( 1.00)
     O                 6.00    15.99900     O ( 1.00)
     H                 1.00     1.00800     H ( 1.00)

     Starting magnetic structure 
     atomic species   magnetization
     Mo              0.200
     S               0.200
     O               0.200
     H               0.200

     No symmetry found



   Cartesian axes

     site n.     atom                  positions (alat units)
         1        S      tau(   1) = (   0.9947064   0.1948289   1.0405700  )
         2        S      tau(   2) = (   0.0827428   0.0409913   1.0346663  )
         3        S      tau(   3) = (   0.0004435   0.4852398   0.0070791  )
         4        S      tau(   4) = (   0.0809005   0.3368000   0.0136281  )
         5        S      tau(   5) = (   0.9986063   0.7668843   1.0318635  )
         6        S      tau(   6) = (   0.0880386   0.6290114   0.0000641  )
         7        S      tau(   7) = (   0.1598361   0.1909199   0.0015679  )
         8        S      tau(   8) = (   0.2544917   0.0439693   0.0058538  )
         9        S      tau(   9) = (   0.1600620   0.4831847   1.0379149  )
        10        S      tau(  10) = (   0.2448853   0.3406734   1.0359228  )
        11        S      tau(  11) = (   0.1688456   0.7663406   0.0059661  )
        12        S      tau(  12) = (   0.2508174   0.6188798   0.0066152  )
        13        S      tau(  13) = (   0.3358411   0.1978697   0.0040358  )
        14        S      tau(  14) = (   0.4194664   0.0431587   1.0329342  )
        15        S      tau(  15) = (   0.3343922   0.4836696   0.0092778  )
        16        S      tau(  16) = (   0.4174512   0.3391279   0.0025968  )
        17        S      tau(  17) = (   0.3363964   0.7677414   1.0244525  )
        18        S      tau(  18) = (   0.4171251   0.6221496   1.0388242  )
        19        S      tau(  19) = (   0.4937490   0.1955966   1.0356546  )
        20        S      tau(  20) = (   0.5795142   0.0501946   0.0037335  )
        21        S      tau(  21) = (   0.5024877   0.4768822   1.0377873  )
        22        S      tau(  22) = (   0.5849558   0.3390756   1.0388455  )
        23        S      tau(  23) = (   0.5088638   0.7701037   0.0046894  )
        24        S      tau(  24) = (   0.5875604   0.6198862   0.0059726  )
        25        S      tau(  25) = (   0.6585014   0.1905104   0.0000696  )
        26        S      tau(  26) = (   0.7517589   0.0474742   1.0392015  )
        27        S      tau(  27) = (   0.6651480   0.4840081   0.0049445  )
        28        S      tau(  28) = (   0.7548988   0.3363955   0.0018449  )
        29        S      tau(  29) = (   0.6681806   0.7767268   1.0339475  )
        30        S      tau(  30) = (   0.7516267   0.6295207   0.0020730  )
        31        S      tau(  31) = (   0.8243614   0.1933398   1.0347430  )
        32        S      tau(  32) = (   0.9202159   0.0547238   0.0075667  )
        33        S      tau(  33) = (   0.8339187   0.4799617   1.0374475  )
        34        S      tau(  34) = (   0.9207582   0.3362571   1.0374322  )
        35        S      tau(  35) = (   0.8364782   0.7713201   0.0017788  )
        36        S      tau(  36) = (   0.9194506   0.6202585   0.0028484  )
        37        Mo     tau(  37) = (   0.0046678   0.8576546   0.0775837  )
        38        Mo     tau(  38) = (   0.0863672   0.1281162   0.0797165  )
        39        Mo     tau(  39) = (   0.9855325   0.2849217   0.0868230  )
        40        Mo     tau(  40) = (   0.0907375   0.4388276   0.0865897  )
        41        Mo     tau(  41) = (   0.0123379   0.5866428   0.0852943  )
        42        Mo     tau(  42) = (   0.0770114   0.7215948   0.0829064  )
        43        Mo     tau(  43) = (   0.1514229   0.8641859   0.0832269  )
        44        Mo     tau(  44) = (   0.2496432   0.1529229   0.0788646  )
        45        Mo     tau(  45) = (   0.1763331   0.2911992   0.0836275  )
        46        Mo     tau(  46) = (   0.2393365   0.4339813   0.0823046  )
        47        Mo     tau(  47) = (   0.1553021   0.5700853   0.0829004  )
        48        Mo     tau(  48) = (   0.2652880   0.7220173   0.0750551  )
        49        Mo     tau(  49) = (   0.3454680   0.8561031   0.0767494  )
        50        Mo     tau(  50) = (   0.4166597   0.1324964   0.0746124  )
        51        Mo     tau(  51) = (   0.3227248   0.2972871   0.0788329  )
        52        Mo     tau(  52) = (   0.4243178   0.4431438   0.0820823  )
        53        Mo     tau(  53) = (   0.3450800   0.5842842   0.0863788  )
        54        Mo     tau(  54) = (   0.4127527   0.7279425   0.0750715  )
        55        Mo     tau(  55) = (   0.4917820   0.0013787   0.0806552  )
        56        Mo     tau(  56) = (   0.5686489   0.1505305   0.0820121  )
        57        Mo     tau(  57) = (   0.5069602   0.2915155   0.0832854  )
        58        Mo     tau(  58) = (   0.5784362   0.4233441   0.0864105  )
        59        Mo     tau(  59) = (   0.4978688   0.5661265   0.0778413  )
        60        Mo     tau(  60) = (   0.6005962   0.7209493   0.0814242  )
        61        Mo     tau(  61) = (   0.6747417   0.0014155   0.0812206  )
        62        Mo     tau(  62) = (   0.7471891   0.1397813   0.0833871  )
        63        Mo     tau(  63) = (   0.6558881   0.2877462   0.0800901  )
        64        Mo     tau(  64) = (   0.7610076   0.4313351   0.0802644  )
        65        Mo     tau(  65) = (   0.6746611   0.5833788   0.0890118  )
        66        Mo     tau(  66) = (   0.7450283   0.7299454   0.0799540  )
        67        Mo     tau(  67) = (   0.8238244   0.0012524   0.0834146  )
        68        Mo     tau(  68) = (   0.9038394   0.1611827   0.0756921  )
        69        Mo     tau(  69) = (   0.8408913   0.2868369   0.0797579  )
        70        Mo     tau(  70) = (   0.9064812   0.4283471   0.0817008  )
        71        Mo     tau(  71) = (   0.8307562   0.5681850   0.0850416  )
        72        Mo     tau(  72) = (   0.9292164   0.7192793   0.0788810  )
        73        S      tau(  73) = (   0.9928244   0.0968253   0.1483899  )
        74        S      tau(  74) = (   0.0776110   0.2373081   0.1576133  )
        75        S      tau(  75) = (   0.9970136   0.3864510   0.1605810  )
        76        S      tau(  76) = (   0.0831452   0.5310926   0.1707451  )
        77        S      tau(  77) = (   0.0037891   0.6766388   0.1676830  )
        78        S      tau(  78) = (   0.0785475   0.8164150   0.1715493  )
        79        S      tau(  79) = (   0.1664937   0.0953807   0.1647587  )
        80        S      tau(  80) = (   0.2526719   0.2386185   0.1682394  )
        81        S      tau(  81) = (   0.1632151   0.3858923   0.1701956  )
        82        S      tau(  82) = (   0.2447063   0.5346027   0.1632541  )
        83        S      tau(  83) = (   0.1717452   0.6725896   0.1501672  )
        84        S      tau(  84) = (   0.2510928   0.8141060   0.1548206  )
        85        S      tau(  85) = (   0.3330560   0.0903725   0.1571235  )
        86        S      tau(  86) = (   0.4133477   0.2379809   0.1514520  )
        87        S      tau(  87) = (   0.3263630   0.3933177   0.1624827  )
        88        S      tau(  88) = (   0.4208848   0.5360441   0.1724089  )
        89        S      tau(  89) = (   0.3406178   0.6786435   0.1648260  )
        90        S      tau(  90) = (   0.4198449   0.8138063   0.1679245  )
        91        S      tau(  91) = (   0.4923707   0.1015125   0.1656690  )
        92        S      tau(  92) = (   0.5794898   0.2384613   0.1685255  )
        93        S      tau(  93) = (   0.4994870   0.3823159   0.1684421  )
        94        S      tau(  94) = (   0.5904852   0.5247884   0.1630712  )
        95        S      tau(  95) = (   0.5039344   0.6736489   0.1536100  )
        96        S      tau(  96) = (   0.5870291   0.8206156   0.1590970  )
        97        S      tau(  97) = (   0.6596492   0.1019287   0.1616501  )
        98        S      tau(  98) = (   0.7527304   0.2449605   0.1560993  )
        99        S      tau(  99) = (   0.6736014   0.3828499   0.1629285  )
       100        S      tau( 100) = (   0.7527395   0.5222921   0.1678296  )
       101        S      tau( 101) = (   0.6722445   0.6695088   0.1747149  )
       102        S      tau( 102) = (   0.7451223   0.8172448   0.1676296  )
       103        S      tau( 103) = (   0.8351526   0.1030977   0.1631738  )
       104        S      tau( 104) = (   0.9151336   0.2394332   0.1716546  )
       105        S      tau( 105) = (   0.8326023   0.3806387   0.1669783  )
       106        S      tau( 106) = (   0.9188133   0.5272097   0.1642341  )
       107        S      tau( 107) = (   0.8330135   0.6726335   0.1538829  )
       108        S      tau( 108) = (   0.9155440   0.8215541   0.1584477  )

     --------------------------------------------
     DFT-D3 Dispersion Correction (3-body terms):
     --------------------------------------------
       Reference C6 values for interpolation: 

         atom   Coordination number   C6
         H          0.912             6.05
         H          0.000            15.18
         O          0.000            31.01
         O          0.993            25.63
         O          1.989            20.74
         S          0.000           268.01
         S          0.995           261.99
         S          1.990           251.62
         Mo         0.000          1691.79
         Mo         1.942          1004.01
         Mo        11.056           674.22

       Values used:

         atom   Coordination number  R0_AB[au]  C6      C8
         S          3.565            3.128    251.62  12327.25
         S          3.519            3.128    251.62  12327.25
         S          3.669            3.128    251.62  12327.25
         S          3.656            3.128    251.62  12327.25
         S          3.546            3.128    251.62  12327.25
         S          3.718            3.128    251.62  12327.25
         S          3.447            3.128    251.62  12327.25
         S          3.469            3.128    251.62  12327.25
         S          3.626            3.128    251.62  12327.25
         S          3.471            3.128    251.62  12327.25
         S          3.644            3.128    251.62  12327.25
         S          3.675            3.128    251.62  12327.25
         S          3.592            3.128    251.62  12327.25
         S          3.593            3.128    251.62  12327.25
         S          3.653            3.128    251.62  12327.25
         S          3.589            3.128    251.62  12327.25
         S          3.448            3.128    251.62  12327.25
         S          3.533            3.128    251.62  12327.25
         S          3.595            3.128    251.62  12327.25
         S          3.662            3.128    251.62  12327.25
         S          3.632            3.128    251.62  12327.25
         S          3.582            3.128    251.62  12327.25
         S          3.614            3.128    251.62  12327.25
         S          3.613            3.128    251.62  12327.25
         S          3.552            3.128    251.62  12327.25
         S          3.593            3.128    251.62  12327.25
         S          3.590            3.128    251.62  12327.25
         S          3.565            3.128    251.62  12327.25
         S          3.583            3.128    251.62  12327.25
         S          3.545            3.128    251.62  12327.25
         S          3.568            3.128    251.62  12327.25
         S          3.654            3.128    251.62  12327.25
         S          3.538            3.128    251.62  12327.25
         S          3.637            3.128    251.62  12327.25
         S          3.543            3.128    251.62  12327.25
         S          3.595            3.128    251.62  12327.25
         Mo         9.874            3.547    674.22  77634.20
         Mo         9.045            3.547    674.22  77634.20
         Mo         9.252            3.547    674.22  77634.20
         Mo         9.543            3.547    674.22  77634.20
         Mo         9.800            3.547    674.22  77634.20
         Mo        10.234            3.547    674.22  77634.20
         Mo         9.309            3.547    674.22  77634.20
         Mo         9.272            3.547    674.22  77634.20
         Mo         9.520            3.547    674.22  77634.20
         Mo         9.831            3.547    674.21  77634.20
         Mo         9.680            3.547    674.22  77634.20
         Mo         9.314            3.547    674.22  77634.20
         Mo         9.867            3.547    674.22  77634.20
         Mo         9.676            3.547    674.22  77634.20
         Mo         9.275            3.547    674.22  77634.20
         Mo         9.601            3.547    674.22  77634.20
         Mo         9.623            3.547    674.22  77634.20
         Mo         9.921            3.547    674.22  77634.20
         Mo         9.788            3.547    674.22  77634.20
         Mo         9.753            3.547    674.22  77634.20
         Mo         9.744            3.547    674.22  77634.20
         Mo         9.782            3.547    674.22  77634.20
         Mo         9.412            3.547    674.22  77634.20
         Mo         9.235            3.547    674.22  77634.20
         Mo         9.870            3.547    674.21  77634.20
         Mo         9.703            3.547    674.22  77634.20
         Mo         9.544            3.547    674.21  77634.20
         Mo         9.603            3.547    674.22  77634.20
         Mo         9.449            3.547    674.22  77634.20
         Mo         9.862            3.547    674.22  77634.20
         Mo         9.486            3.547    674.22  77634.20
         Mo         9.496            3.547    674.21  77634.20
         Mo        10.175            3.547    674.22  77634.20
         Mo         9.735            3.547    674.22  77634.20
         Mo         9.393            3.547    674.22  77634.20
         Mo         9.462            3.547    674.22  77634.20
         S          3.782            3.128    251.62  12327.25
         S          3.479            3.128    251.62  12327.25
         S          3.602            3.128    251.62  12327.25
         S          3.612            3.128    251.62  12327.25
         S          3.579            3.128    251.62  12327.25
         S          3.532            3.128    251.62  12327.25
         S          3.435            3.128    251.62  12327.25
         S          3.465            3.128    251.62  12327.25
         S          3.517            3.128    251.62  12327.25
         S          3.603            3.128    251.62  12327.25
         S          3.763            3.128    251.62  12327.25
         S          3.591            3.128    251.62  12327.25
         S          3.616            3.128    251.62  12327.25
         S          3.684            3.128    251.62  12327.25
         S          3.447            3.128    251.62  12327.25
         S          3.462            3.128    251.62  12327.25
         S          3.683            3.128    251.62  12327.25
         S          3.621            3.128    251.62  12327.25
         S          3.644            3.128    251.62  12327.25
         S          3.610            3.128    251.62  12327.25
         S          3.450            3.128    251.62  12327.25
         S          3.539            3.128    251.62  12327.25
         S          3.600            3.128    251.62  12327.25
         S          3.569            3.128    251.62  12327.25
         S          3.549            3.128    251.62  12327.25
         S          3.744            3.128    251.62  12327.25
         S          3.673            3.128    251.62  12327.25
         S          3.642            3.128    251.62  12327.25
         S          3.474            3.128    251.62  12327.25
         S          3.556            3.128    251.62  12327.25
         S          3.635            3.128    251.62  12327.25
         S          3.693            3.128    251.62  12327.25
         S          3.771            3.128    251.62  12327.25
         S          3.518            3.128    251.62  12327.25
         S          3.556            3.128    251.62  12327.25
         S          3.561            3.128    251.62  12327.25

         Molecular C6 ( Ry / a.u.^6 ) =   4307461.03


     number of k points=     1  Gaussian smearing, width (Ry)=  0.0073
                       cart. coord. in units 2pi/alat
        k(    1) = (   0.0000000   0.0000000   0.0000000), wk =   1.0000000

     Dense  grid:  2908939 G-vectors     FFT dimensions: ( 240, 200, 243)

     Smooth grid:  1028365 G-vectors     FFT dimensions: ( 180, 144, 180)

     Estimated max dynamical RAM per process >       3.92 GB

     Estimated total dynamical RAM >      29.97 GB

     Check: negative core charge=   -0.000001
     Generating pointlists ...
     new r_m :   0.0492 (alat units)  1.7843 (a.u.) for type    1
     new r_m :   0.0492 (alat units)  1.7843 (a.u.) for type    2
     new r_m :   0.3572 (alat units) 12.9577 (a.u.) for type    3
     new r_m :   0.3572 (alat units) 12.9577 (a.u.) for type    4

     Initial potential from superposition of free atoms

     starting charge     935.9512, renormalised to     936.0000

     negative rho (up, down):  1.809E-02 1.206E-02
     Starting wfcs are  756 randomized atomic wfcs
     Checking if some PAW data can be deallocated... 

     total cpu time spent up to now is       10.0 secs

     per-process dynamical memory:   640.2 Mb

     Self-consistent Calculation

     iteration #  1     ecut=    50.00 Ry     beta= 0.20
     Davidson diagonalization with overlap
     ethr =  1.00E-02,  avg # of iterations =  2.0

     negative rho (up, down):  1.406E-02 9.405E-03

     total cpu time spent up to now is       11.5 secs

     total energy              =   -6964.54916637 Ry
     estimated scf accuracy    <      21.83172360 Ry

     total magnetization       =    29.05 Bohr mag/cell
     absolute magnetization    =    30.16 Bohr mag/cell

     iteration #  2     ecut=    50.00 Ry     beta= 0.20
     Davidson diagonalization with overlap
     ethr =  2.33E-03,  avg # of iterations =  1.0

     negative rho (up, down):  7.953E-03 7.807E-03

     total cpu time spent up to now is       12.6 secs

     total energy              =   -6963.03551183 Ry
     estimated scf accuracy    <      13.48688576 Ry

     total magnetization       =    25.03 Bohr mag/cell
     absolute magnetization    =    26.21 Bohr mag/cell

     iteration #  3     ecut=    50.00 Ry     beta= 0.20
     Davidson diagonalization with overlap
     ethr =  1.44E-03,  avg # of iterations =  2.0

     negative rho (up, down):  5.315E-03 4.286E-03

     total cpu time spent up to now is       13.9 secs

     total energy              =   -6965.58458470 Ry
     estimated scf accuracy    <       2.76171765 Ry

     total magnetization       =     9.60 Bohr mag/cell
     absolute magnetization    =    11.99 Bohr mag/cell

     iteration #  4     ecut=    50.00 Ry     beta= 0.20
     Davidson diagonalization with overlap
     ethr =  2.95E-04,  avg # of iterations =  1.5

     negative rho (up, down):  2.202E-03 2.073E-03

     total cpu time spent up to now is       15.0 secs

     total energy              =   -6966.06854409 Ry
     estimated scf accuracy    <       1.10395437 Ry

     total magnetization       =    14.53 Bohr mag/cell
     absolute magnetization    =    15.63 Bohr mag/cell

     iteration #  5     ecut=    50.00 Ry     beta= 0.20
     Davidson diagonalization with overlap
     ethr =  1.18E-04,  avg # of iterations =  2.0

     negative rho (up, down):  6.312E-04 1.405E-03

     total cpu time spent up to now is       16.2 secs

     total energy              =   -6966.19100037 Ry
     estimated scf accuracy    <       1.36690994 Ry

     total magnetization       =    11.77 Bohr mag/cell
     absolute magnetization    =    12.70 Bohr mag/cell

     iteration #  6     ecut=    50.00 Ry     beta= 0.20
     Davidson diagonalization with overlap
     ethr =  1.18E-04,  avg # of iterations =  1.5

     negative rho (up, down):  4.473E-04 8.604E-04

     total cpu time spent up to now is       17.4 secs

     total energy              =   -6966.31353545 Ry
     estimated scf accuracy    <       0.32303220 Ry

     total magnetization       =     3.31 Bohr mag/cell
     absolute magnetization    =     5.34 Bohr mag/cell

     iteration #  7     ecut=    50.00 Ry     beta= 0.20
     Davidson diagonalization with overlap
     c_bands:  5 eigenvalues not converged
     ethr =  3.45E-05,  avg # of iterations = 20.0

     negative rho (up, down):  1.839E-04 3.735E-04

     total cpu time spent up to now is       19.0 secs

     total energy              =   -6966.29085848 Ry
     estimated scf accuracy    <       0.18205318 Ry

     total magnetization       =     2.93 Bohr mag/cell
     absolute magnetization    =     4.61 Bohr mag/cell

     iteration #  8     ecut=    50.00 Ry     beta= 0.20
     Davidson diagonalization with overlap
     c_bands:  1 eigenvalues not converged
     ethr =  1.95E-05,  avg # of iterations = 11.0

     negative rho (up, down):  1.278E-04 2.207E-04

     total cpu time spent up to now is       20.6 secs

     total energy              =   -6966.32027777 Ry
     estimated scf accuracy    <       0.03220111 Ry

     total magnetization       =     1.02 Bohr mag/cell
     absolute magnetization    =     2.54 Bohr mag/cell

     iteration #  9     ecut=    50.00 Ry     beta= 0.20
     Davidson diagonalization with overlap
     ethr =  3.44E-06,  avg # of iterations = 15.5

     negative rho (up, down):  9.178E-05 1.339E-04

     total cpu time spent up to now is       22.1 secs

     total energy              =   -6966.32004167 Ry
     estimated scf accuracy    <       0.02031288 Ry

     total magnetization       =     0.77 Bohr mag/cell
     absolute magnetization    =     1.86 Bohr mag/cell

     iteration # 10     ecut=    50.00 Ry     beta= 0.20
     Davidson diagonalization with overlap
     ethr =  2.17E-06,  avg # of iterations =  2.0

     negative rho (up, down):  8.206E-05 1.122E-04

     total cpu time spent up to now is       23.4 secs

     total energy              =   -6966.31976693 Ry
     estimated scf accuracy    <       0.01130907 Ry

     total magnetization       =     0.34 Bohr mag/cell
     absolute magnetization    =     0.88 Bohr mag/cell

     iteration # 11     ecut=    50.00 Ry     beta= 0.20
     Davidson diagonalization with overlap
     ethr =  1.21E-06,  avg # of iterations =  2.0

     negative rho (up, down):  9.653E-05 1.229E-04

     total cpu time spent up to now is       24.6 secs

     total energy              =   -6966.32052985 Ry
     estimated scf accuracy    <       0.01179484 Ry

     total magnetization       =    -0.28 Bohr mag/cell
     absolute magnetization    =     0.46 Bohr mag/cell

     iteration # 12     ecut=    50.00 Ry     beta= 0.20
     Davidson diagonalization with overlap
     ethr =  1.21E-06,  avg # of iterations =  1.0

     negative rho (up, down):  1.344E-04 1.527E-04

     total cpu time spent up to now is       25.8 secs

     total energy              =   -6966.32015631 Ry
     estimated scf accuracy    <       0.00654491 Ry

     total magnetization       =    -0.19 Bohr mag/cell
     absolute magnetization    =     0.28 Bohr mag/cell

     iteration # 13     ecut=    50.00 Ry     beta= 0.20
     Davidson diagonalization with overlap
     ethr =  6.99E-07,  avg # of iterations =  2.0

     negative rho (up, down):  8.074E-04 7.987E-04

     total cpu time spent up to now is       27.1 secs

     total energy              =   -6966.32058798 Ry
     estimated scf accuracy    <       0.00514919 Ry

     total magnetization       =    -0.25 Bohr mag/cell
     absolute magnetization    =     0.46 Bohr mag/cell

     iteration # 14     ecut=    50.00 Ry     beta= 0.20
     Davidson diagonalization with overlap
     ethr =  5.50E-07,  avg # of iterations =  1.0

     negative rho (up, down):  3.386E-03 3.245E-03

     total cpu time spent up to now is       28.2 secs

     total energy              =   -6966.32093442 Ry
     estimated scf accuracy    <       0.00272672 Ry

     total magnetization       =    -0.34 Bohr mag/cell
     absolute magnetization    =     0.53 Bohr mag/cell

     iteration # 15     ecut=    50.00 Ry     beta= 0.20
     Davidson diagonalization with overlap
     ethr =  2.91E-07,  avg # of iterations =  1.0

     negative rho (up, down):  8.836E-03 8.665E-03

     total cpu time spent up to now is       29.4 secs

     total energy              =   -6966.32205900 Ry
     estimated scf accuracy    <       0.00165368 Ry

     total magnetization       =    -0.36 Bohr mag/cell
     absolute magnetization    =     0.55 Bohr mag/cell

     iteration # 16     ecut=    50.00 Ry     beta= 0.20
     Davidson diagonalization with overlap
     ethr =  1.77E-07,  avg # of iterations =  2.0

     negative rho (up, down):  1.291E-02 1.272E-02

     total cpu time spent up to now is       30.7 secs

     total energy              =   -6966.32251252 Ry
     estimated scf accuracy    <       0.00076723 Ry

     total magnetization       =    -0.17 Bohr mag/cell
     absolute magnetization    =     0.30 Bohr mag/cell

     iteration # 17     ecut=    50.00 Ry     beta= 0.20
     Davidson diagonalization with overlap
     ethr =  8.20E-08,  avg # of iterations =  1.5

     negative rho (up, down):  1.442E-02 1.426E-02

     total cpu time spent up to now is       31.9 secs

     total energy              =   -6966.32310367 Ry
     estimated scf accuracy    <       0.00027100 Ry

     total magnetization       =    -0.06 Bohr mag/cell
     absolute magnetization    =     0.25 Bohr mag/cell

     iteration # 18     ecut=    50.00 Ry     beta= 0.20
     Davidson diagonalization with overlap
     ethr =  2.90E-08,  avg # of iterations =  2.0

     negative rho (up, down):  1.530E-02 1.517E-02

     total cpu time spent up to now is       33.1 secs

     total energy              =   -6966.32331928 Ry
     estimated scf accuracy    <       0.00012216 Ry

     total magnetization       =     0.00 Bohr mag/cell
     absolute magnetization    =     0.16 Bohr mag/cell

     iteration # 19     ecut=    50.00 Ry     beta= 0.20
     Davidson diagonalization with overlap
     ethr =  1.31E-08,  avg # of iterations =  2.0

     negative rho (up, down):  1.541E-02 1.531E-02

     total cpu time spent up to now is       34.4 secs

     total energy              =   -6966.32346693 Ry
     estimated scf accuracy    <       0.00005374 Ry

     total magnetization       =    -0.01 Bohr mag/cell
     absolute magnetization    =     0.11 Bohr mag/cell

     iteration # 20     ecut=    50.00 Ry     beta= 0.20
     Davidson diagonalization with overlap
     ethr =  5.74E-09,  avg # of iterations =  2.0

     negative rho (up, down):  1.627E-02 1.619E-02

     total cpu time spent up to now is       35.7 secs

     total energy              =   -6966.32350587 Ry
     estimated scf accuracy    <       0.00001304 Ry

     total magnetization       =     0.02 Bohr mag/cell
     absolute magnetization    =     0.06 Bohr mag/cell

     iteration # 21     ecut=    50.00 Ry     beta= 0.20
     Davidson diagonalization with overlap
     ethr =  1.39E-09,  avg # of iterations =  4.5

     negative rho (up, down):  1.616E-02 1.610E-02

     total cpu time spent up to now is       37.0 secs

     total energy              =   -6966.32351299 Ry
     estimated scf accuracy    <       0.00000609 Ry

     total magnetization       =     0.02 Bohr mag/cell
     absolute magnetization    =     0.05 Bohr mag/cell

     iteration # 22     ecut=    50.00 Ry     beta= 0.20
     Davidson diagonalization with overlap
     ethr =  6.50E-10,  avg # of iterations =  3.0

     negative rho (up, down):  1.619E-02 1.614E-02

     total cpu time spent up to now is       38.2 secs

     total energy              =   -6966.32351816 Ry
     estimated scf accuracy    <       0.00000219 Ry

     total magnetization       =     0.02 Bohr mag/cell
     absolute magnetization    =     0.04 Bohr mag/cell

     iteration # 23     ecut=    50.00 Ry     beta= 0.20
     Davidson diagonalization with overlap
     ethr =  2.34E-10,  avg # of iterations =  5.0

     negative rho (up, down):  1.603E-02 1.603E-02
 
     Magnetic moment per site  (integrated on atomic sphere of radius R)
     atom   1 (R=0.049)  charge=  3.7633  magn= -0.0000
     atom   2 (R=0.049)  charge=  3.8021  magn= -0.0000
     atom   3 (R=0.049)  charge=  3.7535  magn= -0.0000
     atom   4 (R=0.049)  charge=  3.7778  magn= -0.0000
     atom   5 (R=0.049)  charge=  3.7696  magn= -0.0000
     atom   6 (R=0.049)  charge=  3.8184  magn= -0.0001
     atom   7 (R=0.049)  charge=  3.7757  magn= -0.0000
     atom   8 (R=0.049)  charge=  3.7524  magn= -0.0000
     atom   9 (R=0.049)  charge=  3.7948  magn= -0.0000
     atom  10 (R=0.049)  charge=  3.7858  magn= -0.0000
     atom  11 (R=0.049)  charge=  3.7846  magn= -0.0001
     atom  12 (R=0.049)  charge=  3.7797  magn= -0.0000
     atom  13 (R=0.049)  charge=  3.8042  magn= -0.0000
     atom  14 (R=0.049)  charge=  3.8079  magn= -0.0000
     atom  15 (R=0.049)  charge=  3.7930  magn= -0.0000
     atom  16 (R=0.049)  charge=  3.7436  magn=  0.0000
     atom  17 (R=0.049)  charge=  3.7533  magn= -0.0000
     atom  18 (R=0.049)  charge=  3.7723  magn= -0.0001
     atom  19 (R=0.049)  charge=  3.7488  magn= -0.0001
     atom  20 (R=0.049)  charge=  3.7672  magn= -0.0000
     atom  21 (R=0.049)  charge=  3.7987  magn= -0.0000
     atom  22 (R=0.049)  charge=  3.8077  magn= -0.0001
     atom  23 (R=0.049)  charge=  3.7804  magn= -0.0001
     atom  24 (R=0.049)  charge=  3.7816  magn= -0.0001
     atom  25 (R=0.049)  charge=  3.7539  magn= -0.0001
     atom  26 (R=0.049)  charge=  3.8035  magn= -0.0000
     atom  27 (R=0.049)  charge=  3.7346  magn=  0.0000
     atom  28 (R=0.049)  charge=  3.7706  magn= -0.0001
     atom  29 (R=0.049)  charge=  3.7683  magn= -0.0001
     atom  30 (R=0.049)  charge=  3.7649  magn= -0.0000
     atom  31 (R=0.049)  charge=  3.7780  magn= -0.0001
     atom  32 (R=0.049)  charge=  3.7687  magn=  0.0000
     atom  33 (R=0.049)  charge=  3.7974  magn= -0.0000
     atom  34 (R=0.049)  charge=  3.7866  magn= -0.0000
     atom  35 (R=0.049)  charge=  3.7562  magn= -0.0000
     atom  36 (R=0.049)  charge=  3.7569  magn= -0.0000
     atom  37 (R=0.049)  charge= 10.3528  magn=  0.0001
     atom  38 (R=0.049)  charge= 10.3350  magn=  0.0002
     atom  39 (R=0.049)  charge= 10.3445  magn=  0.0001
     atom  40 (R=0.049)  charge= 10.3479  magn=  0.0000
     atom  41 (R=0.049)  charge= 10.3625  magn= -0.0001
     atom  42 (R=0.049)  charge= 10.3736  magn=  0.0004
     atom  43 (R=0.049)  charge= 10.3334  magn=  0.0002
     atom  44 (R=0.049)  charge= 10.3069  magn= -0.0004
     atom  45 (R=0.049)  charge= 10.3352  magn=  0.0010
     atom  46 (R=0.049)  charge= 10.3359  magn= -0.0000
     atom  47 (R=0.049)  charge= 10.3904  magn=  0.0002
     atom  48 (R=0.049)  charge= 10.3306  magn= -0.0001
     atom  49 (R=0.049)  charge= 10.3550  magn=  0.0001
     atom  50 (R=0.049)  charge= 10.3517  magn=  0.0003
     atom  51 (R=0.049)  charge= 10.3212  magn= -0.0005
     atom  52 (R=0.049)  charge= 10.3377  magn=  0.0007
     atom  53 (R=0.049)  charge= 10.3337  magn=  0.0001
     atom  54 (R=0.049)  charge= 10.3501  magn=  0.0004
     atom  55 (R=0.049)  charge= 10.3443  magn=  0.0002
     atom  56 (R=0.049)  charge= 10.3372  magn=  0.0003
     atom  57 (R=0.049)  charge= 10.3519  magn=  0.0002
     atom  58 (R=0.049)  charge= 10.3462  magn=  0.0006
     atom  59 (R=0.049)  charge= 10.3309  magn= -0.0000
     atom  60 (R=0.049)  charge= 10.3110  magn=  0.0005
     atom  61 (R=0.049)  charge= 10.3537  magn=  0.0002
     atom  62 (R=0.049)  charge= 10.3207  magn= -0.0007
     atom  63 (R=0.049)  charge= 10.3265  magn=  0.0004
     atom  64 (R=0.049)  charge= 10.3457  magn=  0.0004
     atom  65 (R=0.049)  charge= 10.3259  magn= -0.0004
     atom  66 (R=0.049)  charge= 10.3470  magn=  0.0000
     atom  67 (R=0.049)  charge= 10.3266  magn=  0.0003
     atom  68 (R=0.049)  charge= 10.3781  magn=  0.0001
     atom  69 (R=0.049)  charge= 10.3784  magn=  0.0001
     atom  70 (R=0.049)  charge= 10.3443  magn= -0.0000
     atom  71 (R=0.049)  charge= 10.3259  magn= -0.0001
     atom  72 (R=0.049)  charge= 10.3281  magn= -0.0001
     atom  73 (R=0.049)  charge=  3.8054  magn= -0.0001
     atom  74 (R=0.049)  charge=  3.7524  magn= -0.0000
     atom  75 (R=0.049)  charge=  3.7780  magn= -0.0000
     atom  76 (R=0.049)  charge=  3.8123  magn= -0.0000
     atom  77 (R=0.049)  charge=  3.8226  magn= -0.0000
     atom  78 (R=0.049)  charge=  3.7595  magn= -0.0001
     atom  79 (R=0.049)  charge=  3.7633  magn= -0.0001
     atom  80 (R=0.049)  charge=  3.7704  magn= -0.0000
     atom  81 (R=0.049)  charge=  3.7731  magn= -0.0001
     atom  82 (R=0.049)  charge=  3.7549  magn= -0.0000
     atom  83 (R=0.049)  charge=  3.8063  magn= -0.0000
     atom  84 (R=0.049)  charge=  3.7729  magn= -0.0000
     atom  85 (R=0.049)  charge=  3.7548  magn= -0.0000
     atom  86 (R=0.049)  charge=  3.7751  magn= -0.0000
     atom  87 (R=0.049)  charge=  3.7483  magn= -0.0000
     atom  88 (R=0.049)  charge=  3.7557  magn= -0.0001
     atom  89 (R=0.049)  charge=  3.7929  magn= -0.0001
     atom  90 (R=0.049)  charge=  3.7717  magn= -0.0001
     atom  91 (R=0.049)  charge=  3.7751  magn= -0.0001
     atom  92 (R=0.049)  charge=  3.7848  magn= -0.0001
     atom  93 (R=0.049)  charge=  3.7907  magn= -0.0001
     atom  94 (R=0.049)  charge=  3.7581  magn= -0.0001
     atom  95 (R=0.049)  charge=  3.7520  magn=  0.0000
     atom  96 (R=0.049)  charge=  3.7639  magn= -0.0000
     atom  97 (R=0.049)  charge=  3.7675  magn= -0.0000
     atom  98 (R=0.049)  charge=  3.7847  magn= -0.0000
     atom  99 (R=0.049)  charge=  3.7506  magn= -0.0001
     atom 100 (R=0.049)  charge=  3.7867  magn= -0.0001
     atom 101 (R=0.049)  charge=  3.7499  magn= -0.0000
     atom 102 (R=0.049)  charge=  3.7960  magn= -0.0000
     atom 103 (R=0.049)  charge=  3.7743  magn= -0.0000
     atom 104 (R=0.049)  charge=  3.8046  magn= -0.0000
     atom 105 (R=0.049)  charge=  3.7923  magn= -0.0001
     atom 106 (R=0.049)  charge=  3.7467  magn= -0.0000
     atom 107 (R=0.049)  charge=  3.7841  magn=  0.0000
     atom 108 (R=0.049)  charge=  3.7688  magn=  0.0000

     total cpu time spent up to now is       39.4 secs

     End of self-consistent calculation

 ------ SPIN UP ------------


          k = 0.0000 0.0000 0.0000 (128566 PWs)   bands (ev):

   -62.1656 -62.1559 -62.1425 -62.1367 -62.1337 -62.0854 -62.0741 -62.0687
   -62.0444 -62.0309 -62.0236 -62.0141 -62.0138 -62.0071 -62.0065 -61.9747
   -61.9575 -61.9444 -61.9398 -61.9387 -61.9290 -61.9075 -61.8959 -61.8896
   -61.8667 -61.8637 -61.8510 -61.8376 -61.8333 -61.7987 -61.7806 -61.7760
   -61.7728 -61.7590 -61.7576 -61.6296 -36.5104 -36.4620 -36.4353 -36.4151
   -36.4090 -36.4026 -36.3948 -36.3850 -36.3842 -36.3791 -36.3660 -36.3600
   -36.3545 -36.3517 -36.3409 -36.3282 -36.3241 -36.3163 -36.3132 -36.3096
   -36.3009 -36.2990 -36.2783 -36.2716 -36.2582 -36.2479 -36.2448 -36.2320
   -36.2263 -36.2117 -36.2045 -36.2028 -36.1916 -36.1853 -36.1713 -36.1677
   -36.1616 -36.1580 -36.1540 -36.1493 -36.1448 -36.1409 -36.1346 -36.1199
   -36.1173 -36.1038 -36.0942 -36.0931 -36.0838 -36.0830 -36.0774 -36.0631
   -36.0595 -36.0506 -36.0414 -36.0361 -36.0290 -36.0284 -36.0202 -36.0174
   -36.0107 -36.0082 -36.0051 -36.0008 -35.9951 -35.9911 -35.9889 -35.9846
   -35.9810 -35.9614 -35.9591 -35.9553 -35.9528 -35.9490 -35.9454 -35.9329
   -35.9316 -35.9204 -35.9174 -35.9167 -35.8983 -35.8889 -35.8861 -35.8842
   -35.8707 -35.8676 -35.8567 -35.8486 -35.8476 -35.8422 -35.8388 -35.8367
   -35.8231 -35.8194 -35.8166 -35.8071 -35.8050 -35.7921 -35.7844 -35.7737
   -35.7642 -35.7599 -35.7490 -35.7165 -35.7050 -35.6996 -35.6792 -35.5897
   -15.0144 -14.7239 -14.7192 -14.6187 -14.5647 -14.3800 -14.3283 -14.3038
   -14.2892 -13.9563 -13.9438 -13.9330 -13.8900 -13.8817 -13.8148 -13.8046
   -13.7851 -13.7647 -13.7423 -13.7123 -13.6925 -13.6852 -13.6524 -13.6312
   -13.6221 -13.5900 -13.5583 -13.5450 -13.5295 -13.4953 -13.4885 -13.4620
   -13.4599 -13.4434 -13.4359 -13.4240 -13.4087 -13.3830 -13.3677 -13.3496
   -13.3261 -13.3228 -13.2849 -13.2807 -13.2587 -13.2428 -13.2273 -13.1989
   -13.1741 -13.1473 -13.1304 -13.1101 -13.0766 -13.0419 -13.0255 -12.9982
   -12.9834 -12.9613 -12.9311 -12.8982 -12.8818 -12.8619 -12.8387 -12.8119
   -12.7844 -12.7490 -12.7006 -12.6945 -12.6587 -12.6386 -12.6117 -12.5420
    -7.0601  -6.9091  -6.9038  -6.8696  -6.8379  -6.7072  -6.6678  -6.4997
    -6.4620  -6.4585  -6.4232  -6.3863  -6.2534  -6.2420  -6.2053  -6.1594
    -6.1489  -6.1356  -6.1057  -6.0797  -6.0595  -6.0548  -6.0379  -6.0161
    -5.9884  -5.9644  -5.9415  -5.9249  -5.9177  -5.8944  -5.8794  -5.8658
    -5.8354  -5.8291  -5.8035  -5.7989  -5.7546  -5.7298  -5.7172  -5.6933
    -5.6660  -5.6487  -5.6307  -5.6256  -5.6120  -5.5888  -5.5707  -5.5679
    -5.5578  -5.5441  -5.5288  -5.5059  -5.4890  -5.4797  -5.4584  -5.4425
    -5.4192  -5.3943  -5.3726  -5.3415  -5.3116  -5.2771  -5.2724  -5.2382
    -5.2248  -5.1735  -5.1355  -5.1235  -5.0915  -5.0719  -5.0369  -4.9767
    -4.9485  -4.9323  -4.9061  -4.8746  -4.8695  -4.8522  -4.8313  -4.8127
    -4.8042  -4.7923  -4.7712  -4.7556  -4.7298  -4.7219  -4.7064  -4.6933
    -4.6655  -4.6456  -4.6130  -4.5670  -4.5544  -4.5121  -4.4998  -4.4920
    -4.4572  -4.4531  -4.4433  -4.4303  -4.4087  -4.3974  -4.3895  -4.3676
    -4.3354  -4.3222  -4.3128  -4.2960  -4.2652  -4.2360  -4.2201  -4.2083
    -4.1989  -4.1877  -4.1696  -4.1516  -4.1241  -4.1084  -4.0915  -4.0669
    -4.0555  -4.0389  -4.0248  -3.9850  -3.9763  -3.9500  -3.9471  -3.9117
    -3.8989  -3.8772  -3.8597  -3.8529  -3.8314  -3.8262  -3.8192  -3.7812
    -3.7655  -3.7360  -3.7075  -3.6885  -3.6738  -3.6612  -3.6340  -3.6263
    -3.6127  -3.5950  -3.5617  -3.5467  -3.5075  -3.5033  -3.4629  -3.4216
    -3.3824  -3.3259  -3.3219  -3.3113  -3.2748  -3.2574  -3.2390  -3.2320
    -3.2077  -3.1789  -3.1614  -3.1584  -3.1440  -3.1239  -3.1001  -3.0831
    -3.0661  -3.0523  -3.0416  -2.9894  -2.9805  -2.9556  -2.9499  -2.8911
    -2.8727  -2.8394  -2.8358  -2.8151  -2.7776  -2.7455  -2.7337  -2.7247
    -2.6794  -2.6523  -2.6336  -2.5927  -2.5712  -2.5578  -2.5145  -2.4637
    -2.4308  -2.3816  -2.3321  -2.3019  -2.2684  -2.2585  -2.2270  -2.1750
    -2.1596  -2.1237  -2.1030  -2.0944  -2.0591  -2.0307  -2.0089  -2.0018
    -1.9821  -1.9583  -1.9426  -1.9172  -1.9091  -1.8791  -1.8635  -1.8270
    -1.8136  -1.7846  -1.7410  -1.7322  -1.7180  -1.6891  -1.6127  -1.6073
    -1.5810  -1.5338  -1.5047  -1.4808  -1.4460  -1.4314  -1.4096  -1.3603
    -1.3447  -1.2867  -1.2746  -1.2641  -1.2391  -1.2142  -1.1940  -1.1613
    -1.1474  -1.1287  -1.0981  -1.0782  -1.0076  -0.9957  -0.9040  -0.8364
    -0.7842  -0.7592  -0.7360  -0.6811  -0.6230  -0.5923  -0.5502  -0.5327
    -0.5161  -0.4360  -0.4168  -0.3728  -0.3313  -0.2855  -0.1492  -0.1098
    -0.0566   0.0193   0.0575   0.1297   0.1656   0.2799   0.3271   0.3696
     0.3736   0.4275   0.4677   0.5472   0.6115   0.6661   0.6823   0.7427
     0.8393   0.8620   0.8902   0.9263   0.9720   0.9913   1.0008   1.0345
     1.0631   1.0923   1.1034   1.1337   1.1486   1.1849   1.2110   1.2230
     1.2302   1.2667   1.2677   1.2978   1.3197   1.3359   1.3559   1.4002
     1.4245   1.4351   1.4588   1.4830   1.4928   1.5284   1.5534   1.5878
     1.5925   1.6188   1.6361   1.6611   1.6688   1.6878   1.7177   1.7447
     1.7609   1.7956   1.8221   1.8260   1.8538   1.8716   1.8941   1.9115
     1.9440   1.9740   1.9990   2.0184   2.0430   2.0857   2.1132   2.1526
     2.1719   2.2002   2.2118   2.2627   2.2646   2.2949   2.3094   2.3852
     2.4073   2.4185

 ------ SPIN DOWN ----------


          k = 0.0000 0.0000 0.0000 (128566 PWs)   bands (ev):

   -62.1662 -62.1568 -62.1424 -62.1374 -62.1334 -62.0854 -62.0737 -62.0683
   -62.0440 -62.0308 -62.0230 -62.0141 -62.0140 -62.0068 -62.0067 -61.9754
   -61.9567 -61.9445 -61.9395 -61.9386 -61.9290 -61.9077 -61.8951 -61.8895
   -61.8668 -61.8635 -61.8510 -61.8377 -61.8333 -61.7987 -61.7794 -61.7757
   -61.7724 -61.7587 -61.7572 -61.6296 -36.5105 -36.4618 -36.4352 -36.4154
   -36.4090 -36.4026 -36.3950 -36.3849 -36.3842 -36.3793 -36.3659 -36.3599
   -36.3542 -36.3516 -36.3409 -36.3279 -36.3242 -36.3163 -36.3132 -36.3096
   -36.3006 -36.2986 -36.2782 -36.2714 -36.2581 -36.2475 -36.2448 -36.2318
   -36.2260 -36.2117 -36.2044 -36.2028 -36.1916 -36.1850 -36.1714 -36.1675
   -36.1622 -36.1580 -36.1539 -36.1492 -36.1448 -36.1413 -36.1350 -36.1197
   -36.1172 -36.1039 -36.0941 -36.0932 -36.0838 -36.0826 -36.0771 -36.0623
   -36.0594 -36.0502 -36.0409 -36.0361 -36.0287 -36.0280 -36.0202 -36.0176
   -36.0104 -36.0082 -36.0051 -36.0008 -35.9950 -35.9907 -35.9886 -35.9851
   -35.9809 -35.9613 -35.9584 -35.9553 -35.9524 -35.9489 -35.9451 -35.9326
   -35.9310 -35.9204 -35.9171 -35.9164 -35.8980 -35.8887 -35.8860 -35.8841
   -35.8706 -35.8672 -35.8565 -35.8484 -35.8473 -35.8422 -35.8387 -35.8365
   -35.8228 -35.8189 -35.8164 -35.8070 -35.8046 -35.7909 -35.7841 -35.7734
   -35.7637 -35.7595 -35.7486 -35.7165 -35.7049 -35.6994 -35.6791 -35.5894
   -15.0145 -14.7240 -14.7193 -14.6188 -14.5648 -14.3801 -14.3285 -14.3039
   -14.2894 -13.9565 -13.9440 -13.9332 -13.8902 -13.8819 -13.8149 -13.8048
   -13.7853 -13.7649 -13.7424 -13.7125 -13.6927 -13.6853 -13.6526 -13.6313
   -13.6223 -13.5901 -13.5585 -13.5452 -13.5297 -13.4955 -13.4887 -13.4622
   -13.4601 -13.4436 -13.4361 -13.4241 -13.4089 -13.3832 -13.3679 -13.3497
   -13.3263 -13.3229 -13.2850 -13.2808 -13.2588 -13.2430 -13.2274 -13.1991
   -13.1743 -13.1475 -13.1305 -13.1102 -13.0768 -13.0420 -13.0256 -12.9983
   -12.9835 -12.9614 -12.9312 -12.8984 -12.8819 -12.8621 -12.8389 -12.8120
   -12.7846 -12.7492 -12.7006 -12.6946 -12.6588 -12.6386 -12.6118 -12.5421
    -7.0601  -6.9091  -6.9038  -6.8697  -6.8379  -6.7072  -6.6679  -6.4997
    -6.4620  -6.4585  -6.4232  -6.3864  -6.2534  -6.2420  -6.2054  -6.1595
    -6.1489  -6.1356  -6.1057  -6.0797  -6.0595  -6.0548  -6.0379  -6.0161
    -5.9884  -5.9644  -5.9415  -5.9249  -5.9177  -5.8944  -5.8793  -5.8659
    -5.8354  -5.8292  -5.8035  -5.7989  -5.7546  -5.7298  -5.7173  -5.6934
    -5.6660  -5.6488  -5.6308  -5.6256  -5.6120  -5.5888  -5.5708  -5.5679
    -5.5579  -5.5441  -5.5288  -5.5060  -5.4890  -5.4797  -5.4584  -5.4426
    -5.4192  -5.3943  -5.3727  -5.3416  -5.3117  -5.2771  -5.2725  -5.2383
    -5.2248  -5.1735  -5.1355  -5.1235  -5.0915  -5.0720  -5.0370  -4.9767
    -4.9485  -4.9324  -4.9062  -4.8747  -4.8695  -4.8522  -4.8313  -4.8128
    -4.8042  -4.7923  -4.7712  -4.7556  -4.7298  -4.7219  -4.7065  -4.6934
    -4.6655  -4.6456  -4.6131  -4.5671  -4.5544  -4.5121  -4.4999  -4.4920
    -4.4573  -4.4531  -4.4433  -4.4303  -4.4088  -4.3974  -4.3896  -4.3677
    -4.3354  -4.3222  -4.3129  -4.2960  -4.2653  -4.2360  -4.2201  -4.2083
    -4.1990  -4.1877  -4.1697  -4.1516  -4.1241  -4.1084  -4.0916  -4.0669
    -4.0556  -4.0389  -4.0248  -3.9850  -3.9763  -3.9500  -3.9471  -3.9117
    -3.8989  -3.8772  -3.8598  -3.8530  -3.8315  -3.8262  -3.8193  -3.7813
    -3.7656  -3.7360  -3.7075  -3.6885  -3.6738  -3.6612  -3.6340  -3.6263
    -3.6127  -3.5950  -3.5617  -3.5468  -3.5076  -3.5033  -3.4629  -3.4216
    -3.3825  -3.3260  -3.3219  -3.3114  -3.2748  -3.2574  -3.2391  -3.2320
    -3.2077  -3.1790  -3.1615  -3.1585  -3.1441  -3.1240  -3.1001  -3.0831
    -3.0662  -3.0523  -3.0416  -2.9894  -2.9806  -2.9557  -2.9499  -2.8911
    -2.8727  -2.8394  -2.8358  -2.8151  -2.7777  -2.7456  -2.7337  -2.7247
    -2.6794  -2.6523  -2.6336  -2.5927  -2.5713  -2.5579  -2.5145  -2.4636
    -2.4309  -2.3815  -2.3321  -2.3019  -2.2685  -2.2585  -2.2271  -2.1750
    -2.1596  -2.1238  -2.1030  -2.0944  -2.0590  -2.0307  -2.0089  -2.0018
    -1.9821  -1.9583  -1.9426  -1.9171  -1.9091  -1.8791  -1.8636  -1.8270
    -1.8137  -1.7846  -1.7411  -1.7322  -1.7179  -1.6891  -1.6127  -1.6073
    -1.5808  -1.5336  -1.5046  -1.4808  -1.4458  -1.4313  -1.4095  -1.3602
    -1.3446  -1.2866  -1.2745  -1.2640  -1.2390  -1.2141  -1.1939  -1.1613
    -1.1472  -1.1287  -1.0979  -1.0781  -1.0075  -0.9956  -0.9039  -0.8361
    -0.7840  -0.7591  -0.7358  -0.6809  -0.6229  -0.5922  -0.5502  -0.5327
    -0.5160  -0.4359  -0.4167  -0.3727  -0.3313  -0.2855  -0.1491  -0.1098
    -0.0564   0.0194   0.0575   0.1298   0.1657   0.2798   0.3271   0.3698
     0.3738   0.4276   0.4678   0.5473   0.6117   0.6661   0.6823   0.7424
     0.8392   0.8620   0.8903   0.9264   0.9721   0.9913   1.0010   1.0350
     1.0634   1.0925   1.1037   1.1339   1.1489   1.1852   1.2112   1.2231
     1.2304   1.2668   1.2679   1.2979   1.3198   1.3361   1.3560   1.4004
     1.4246   1.4352   1.4590   1.4832   1.4929   1.5286   1.5535   1.5880
     1.5926   1.6189   1.6363   1.6612   1.6689   1.6879   1.7178   1.7448
     1.7611   1.7957   1.8222   1.8260   1.8539   1.8716   1.8942   1.9116
     1.9441   1.9741   1.9990   2.0184   2.0430   2.0858   2.1131   2.1526
     2.1721   2.2002   2.2120   2.2624   2.2646   2.2948   2.3091   2.3852
     2.4065   2.4176

     the Fermi energy is    -0.6573 ev

!    total energy              =   -6966.32351879 Ry
     estimated scf accuracy    <       0.00000085 Ry
     smearing contrib. (-TS)   =      -0.01783685 Ry
     internal energy E=F+TS    =   -6966.30568193 Ry

     The total energy is F=E-TS. E is the sum of the following terms:
     one-electron contribution =  -39808.33353377 Ry
     hartree contribution      =   19930.46288520 Ry
     xc contribution           =   -1531.75090354 Ry
     ewald contribution        =   14444.60004682 Ry
     DFT-D3 Dispersion         =      -1.28417664 Ry
     one-center paw contrib.   =       0.00000000 Ry

     total magnetization       =     0.00 Bohr mag/cell
     absolute magnetization    =     0.02 Bohr mag/cell

     convergence has been achieved in  23 iterations

     negative rho (up, down):  1.603E-02 1.603E-02

     Forces acting on atoms (cartesian axes, Ry/au):

     atom    1 type  2   force =     0.02976960   -0.00608316    0.00586550
     atom    2 type  2   force =     0.00094112    0.01448315   -0.03099039
     atom    3 type  2   force =    -0.01210459   -0.01413644    0.01554001
     atom    4 type  2   force =    -0.00754251   -0.00678417   -0.01852987
     atom    5 type  2   force =     0.01988387    0.01394201    0.00622389
     atom    6 type  2   force =    -0.01185290    0.00146792   -0.05490549
     atom    7 type  2   force =     0.02145492    0.01810775   -0.01177419
     atom    8 type  2   force =    -0.03480676    0.01562778    0.02538798
     atom    9 type  2   force =     0.02800397   -0.00860506   -0.02490294
     atom   10 type  2   force =     0.00461201    0.01199474   -0.01541825
     atom   11 type  2   force =    -0.00170691    0.01403901   -0.01771880
     atom   12 type  2   force =    -0.00449122    0.00552993   -0.00227705
     atom   13 type  2   force =    -0.02722864   -0.00950349   -0.04525023
     atom   14 type  2   force =    -0.01847053    0.00342395   -0.04006602
     atom   15 type  2   force =    -0.02310465   -0.00267003   -0.01719004
     atom   16 type  2   force =    -0.01119005    0.00804846    0.01171163
     atom   17 type  2   force =    -0.00272340    0.00491139    0.02767348
     atom   18 type  2   force =     0.01652584    0.01393704   -0.00187181
     atom   19 type  2   force =     0.00972322   -0.00038191    0.02011062
     atom   20 type  2   force =     0.02235332    0.00271773    0.00913894
     atom   21 type  2   force =     0.01706904   -0.00503008   -0.02346177
     atom   22 type  2   force =    -0.01451903   -0.00427789   -0.03560725
     atom   23 type  2   force =    -0.00898225   -0.01750820   -0.01823468
     atom   24 type  2   force =    -0.00077707    0.02230095   -0.01062513
     atom   25 type  2   force =     0.02099914    0.00586821    0.00930481
     atom   26 type  2   force =    -0.00345481    0.02770867   -0.03525891
     atom   27 type  2   force =     0.01221610   -0.02316743    0.03262109
     atom   28 type  2   force =    -0.04366043   -0.01535312   -0.01493799
     atom   29 type  2   force =    -0.00346627   -0.00462674    0.00552415
     atom   30 type  2   force =     0.00672351   -0.02139451    0.00110838
     atom   31 type  2   force =    -0.00527641    0.01206900   -0.00703375
     atom   32 type  2   force =    -0.03234273   -0.02081684   -0.00936815
     atom   33 type  2   force =     0.00581918    0.02011648   -0.02944676
     atom   34 type  2   force =    -0.00915120    0.02399171   -0.01935692
     atom   35 type  2   force =    -0.00646006    0.00482620    0.01002361
     atom   36 type  2   force =     0.00271930    0.01751631    0.00665579
     atom   37 type  1   force =     0.03580948   -0.01377731   -0.00436608
     atom   38 type  1   force =     0.01050488    0.00837942   -0.00016802
     atom   39 type  1   force =    -0.00103541    0.02049455   -0.04330846
     atom   40 type  1   force =     0.00194382    0.01032098    0.00677550
     atom   41 type  1   force =    -0.04162257   -0.03100895    0.00018724
     atom   42 type  1   force =    -0.03331563    0.03604397   -0.02888470
     atom   43 type  1   force =     0.01651525   -0.00778897    0.01791626
     atom   44 type  1   force =     0.00836712    0.02195188   -0.00161304
     atom   45 type  1   force =     0.00423419    0.01522616    0.02081919
     atom   46 type  1   force =    -0.02472295   -0.02628409   -0.00511925
     atom   47 type  1   force =     0.02561512   -0.03009120   -0.03326277
     atom   48 type  1   force =     0.05071823   -0.00216411    0.00017073
     atom   49 type  1   force =     0.01392754    0.00064761   -0.01433057
     atom   50 type  1   force =     0.00497736   -0.01630502    0.03993148
     atom   51 type  1   force =    -0.03413857    0.01727528    0.05110020
     atom   52 type  1   force =    -0.01073513   -0.02012890    0.05499673
     atom   53 type  1   force =     0.02173860   -0.00774152   -0.00536978
     atom   54 type  1   force =    -0.01103122   -0.01276178    0.02496475
     atom   55 type  1   force =     0.00169674    0.01706862    0.03290795
     atom   56 type  1   force =     0.00817630    0.01364655   -0.02860780
     atom   57 type  1   force =     0.02838282    0.00832095   -0.02836654
     atom   58 type  1   force =     0.01638213    0.02177684   -0.02790287
     atom   59 type  1   force =    -0.00079597    0.00205980    0.05559708
     atom   60 type  1   force =     0.01505265    0.01929892    0.01651191
     atom   61 type  1   force =     0.00705275   -0.02193093   -0.01334518
     atom   62 type  1   force =    -0.00513967    0.00164201   -0.01221073
     atom   63 type  1   force =    -0.01469528   -0.00423572    0.02470915
     atom   64 type  1   force =    -0.00712864    0.02003382    0.00824894
     atom   65 type  1   force =     0.02737906    0.02606620   -0.04133864
     atom   66 type  1   force =    -0.03220955   -0.02471740    0.01632657
     atom   67 type  1   force =    -0.02727137    0.00102636    0.00306697
     atom   68 type  1   force =     0.02682238   -0.03181114    0.02971981
     atom   69 type  1   force =     0.00331492    0.02449453   -0.00065535
     atom   70 type  1   force =    -0.00706660   -0.00021239   -0.00570351
     atom   71 type  1   force =     0.00125248   -0.03514358   -0.01822088
     atom   72 type  1   force =     0.00260028    0.01376151    0.01261536
     atom   73 type  2   force =    -0.01197594   -0.00350318    0.03143495
     atom   74 type  2   force =     0.03252440   -0.00583336   -0.01299915
     atom   75 type  2   force =     0.01518965   -0.00114412    0.00841919
     atom   76 type  2   force =    -0.01697838   -0.00403382    0.04472527
     atom   77 type  2   force =    -0.02421664   -0.01263669    0.05825501
     atom   78 type  2   force =     0.01377721    0.00025935   -0.01343042
     atom   79 type  2   force =    -0.00380789   -0.01134430   -0.01120391
     atom   80 type  2   force =    -0.00414239    0.00626023    0.00327696
     atom   81 type  2   force =     0.01390139   -0.02053125    0.01214686
     atom   82 type  2   force =     0.03511050   -0.01389848   -0.01539409
     atom   83 type  2   force =     0.01553746    0.03570510    0.03645268
     atom   84 type  2   force =    -0.00507894    0.01999813    0.00228471
     atom   85 type  2   force =    -0.01436352   -0.00289129   -0.00902163
     atom   86 type  2   force =    -0.00716499    0.01260081   -0.00288776
     atom   87 type  2   force =     0.03164627   -0.02612346   -0.01166648
     atom   88 type  2   force =     0.00328900   -0.02434419   -0.01528006
     atom   89 type  2   force =    -0.01072399   -0.00107555    0.01793499
     atom   90 type  2   force =     0.00312980   -0.00111923   -0.00541175
     atom   91 type  2   force =     0.00581991   -0.02926226    0.00631049
     atom   92 type  2   force =     0.01715281    0.01199635    0.01043814
     atom   93 type  2   force =    -0.02477807    0.00297110    0.02603475
     atom   94 type  2   force =    -0.03613472    0.00218307   -0.01073707
     atom   95 type  2   force =     0.00821318    0.00149756   -0.02060121
     atom   96 type  2   force =    -0.01992533   -0.01183421    0.00387128
     atom   97 type  2   force =     0.01421405   -0.02678424   -0.00435807
     atom   98 type  2   force =    -0.03517762   -0.02289580    0.01054089
     atom   99 type  2   force =    -0.03605682   -0.00914886   -0.01533023
     atom  100 type  2   force =    -0.00126467    0.00980912    0.01634572
     atom  101 type  2   force =    -0.00033801    0.03322870   -0.01935397
     atom  102 type  2   force =     0.03590504    0.01480603    0.03197425
     atom  103 type  2   force =    -0.02177140   -0.02540105    0.00773884
     atom  104 type  2   force =    -0.02648102   -0.00618335    0.02361250
     atom  105 type  2   force =     0.00942709   -0.00226307    0.01874622
     atom  106 type  2   force =     0.00450099    0.00294811   -0.02352922
     atom  107 type  2   force =     0.01896641    0.01783238    0.00944135
     atom  108 type  2   force =     0.00501795   -0.02556655    0.00476477

     Total force =     0.356999     Total SCF correction =     0.002397

     BFGS Geometry Optimization
     Energy error            =      0.0E+00 Ry
     Gradient error          =      5.8E-02 Ry/Bohr

     number of scf cycles    =   1
     number of bfgs steps    =   0

     energy             new  =   -6966.3235187851 Ry

     new trust radius        =       0.0643411088 bohr
     new conv_thr            =       0.0000010000 Ry


ATOMIC_POSITIONS (angstrom)
S               19.1086015539        3.7364156687       19.9762789014
S                1.5887010503        0.7944698504       19.8434572921
S                0.0021072687        9.3064332780        0.1441028882
S                1.5488497578        6.4611027334        0.2517783742
S               19.1782267122       14.7273046922       19.8093520184
S                1.6835807449       12.0743083880       -0.0278243731
S                3.0793204343        3.6741858210        0.0238643561
S                4.8664107763        0.8522366546        0.1257952526
S                3.0871220711        9.2699138269       19.9090337398
S                4.7028806723        6.5453879030       19.8758155417
S                3.2399961731       14.7169200032        0.1051396572
S                4.8119268797       11.8819873607        0.1257701976
S                6.4318784146        3.7929722098        0.0535195969
S                8.0416551441        0.8302196448       19.8054079566
S                6.4062498974        9.2823618993        0.1689857451
S                8.0068271408        6.5136345906        0.0560416883
S                6.4555047166       14.7389774654       19.6784525456
S                8.0152344453       11.9491982466       19.9386748117
S                9.4823887279        3.7541682219       19.8894686600
S               11.1352886394        0.9648961995        0.0764986183
S                9.6540105588        9.1508325651       19.9073471663
S               11.2202251884        6.5061078962       19.9212316260
S                9.7626105873       14.7724565903        0.0803611048
S               11.2774910035       11.9101795026        0.1090182313
S               12.6506883643        3.6598488015        0.0062598257
S               14.4277748707        0.9259042350       19.9282491909
S               12.7736184611        9.2780124716        0.1121693268
S               14.4667676455        6.4488040766        0.0275070054
S               12.8235288074       14.9063999629       19.8489829860
S               14.4306234981       12.0719858505        0.0403766397
S               15.8203764149        3.7174389104       19.8576068200
S               17.6459285023        1.0393777708        0.1402812761
S               16.0096951164        9.2232488842       19.8976577658
S               17.6686100937        6.4669679573       19.9027034066
S               16.0523254350       14.8076235851        0.0394473685
S               17.6497930107       11.9147936845        0.0581955815
Mo               0.1085454405       16.4549227905        1.4868664814
Mo               1.6633303551        2.4635549583        1.5300259378
Mo              18.9162122251        5.4797622689        1.6436024012
Mo               1.7426855738        8.4285186597        1.6656276189
Mo               0.2147935658       11.2438801411        1.6372767650
Mo               1.4605620455       13.8696932385        1.5760581165
Mo               2.9152196763       16.5834564371        1.6069759365
Mo               4.7961930911        2.9468883071        1.5129095052
Mo               3.3868585555        5.5974675470        1.6162014030
Mo               4.5808510794        8.3161259973        1.5770830305
Mo               2.9944942474       10.9265535943        1.5736261698
Mo               5.1188977635       13.8575840542        1.4407321539
Mo               6.6384404362       16.4327759323        1.4655795694
Mo               8.0001901578        2.5345680655        1.4532752498
Mo               6.1764615943        5.7154058219        1.5401956930
Mo               8.1388685256        8.4952523843        1.6046281074
Mo               6.6351264194       11.2109206964        1.6551525061
Mo               7.9167260400       13.9657069962        1.4541673755
Mo               9.4403858045        0.0354957227        1.5655468156
Mo              10.9192329641        2.8965724944        1.5590390454
Mo               9.7458447640        5.5998846751        1.5836070114
Mo              11.1114371989        8.1373834750        1.6438369696
Mo               9.5558995302       10.8675801579        1.5235421097
Mo              11.5360828111       13.8484421200        1.5716309450
Mo              12.9550319846        0.0155644035        1.5519232633
Mo              14.3391684554        2.6838949159        1.5941083782
Mo              12.5816388202        5.5208903147        1.5503614169
Mo              14.6033545255        8.2898440102        1.5449966423
Mo              12.9642411223       11.2114323113        1.6866576018
Mo              14.2833683082       13.9978249231        1.5433131810
Mo              15.7984297501        0.0245822657        1.6027208321
Mo              17.3628993232        3.0769804983        1.4685957280
Mo              16.1422051799        5.5186401870        1.5305627050
Mo              17.3956739663        8.2217771479        1.5651842415
Mo              15.9465760542       10.8874047606        1.6226851682
Mo              17.8371792498       13.8134571081        1.5207536388
S               19.0503868054        1.8566551457        2.8648980609
S                1.5069120908        4.5519129869        3.0184226882
S               19.1451716257        7.4171112482        3.0867201756
S                1.5869423059       10.1918989018        3.3010268930
S                0.0599148156       12.9810265825        3.2494111760
S                1.5149671181       15.6707789846        3.2856884083
S                3.1937409391        1.8247774971        3.1565247569
S                4.8477075923        4.5834650516        3.2309978450
S                3.1401813364        7.3961280792        3.2732397804
S                4.7155839678       10.2540532115        3.1254274301
S                3.3047777373       12.9288857648        2.9016676276
S                4.8169020206       15.6369042930        2.9729061955
S                6.3852278717        1.7331209648        3.0111260566
S                7.9301926615        4.5745819597        2.9055106008
S                6.2811067047        7.5356953217        3.1125933962
S                8.0803952147       10.2761924701        3.3012091701
S                6.5322984577       13.0256236051        3.1732361801
S                8.0603506502       15.6199768883        3.2203556452
S                9.4538674633        1.9329922905        3.1832656864
S               11.1320683041        4.5834831073        3.2402789034
S                9.5742692204        7.3399179401        3.2469314683
S               11.3149204782       10.0741830530        3.1243811494
S                9.6770928560       12.9311166028        2.9375586910
S               11.2571601581       15.7450075745        3.0558289540
S               12.6691292509        1.9422923325        3.1004795272
S               14.4296352956        4.6897675861        3.0018191385
S               12.9103319411        7.3437541624        3.1192114992
S               14.4477559270       10.0303034648        3.2300476444
S               12.9031885616       12.8684410322        3.3433157724
S               14.3212172769       15.6944043138        3.2344790128
S               16.0187788493        1.9654626051        3.1361275291
S               17.5514784080        4.5925179247        3.3073118583
S               15.9863367628        7.3049551863        3.2149776946
S               17.6385032204       10.1210634203        3.1399330751
S               15.9992775127       12.9202705696        2.9586946862
S               17.5760243446       15.7557547324        3.0438388084


     Message from routine punch:
     Nothing written, as per user request (disk_io='none')
     NEW-OLD atomic charge density approx. for the potential

     Check: negative core charge=   -0.000001

     negative rho (up, down):  1.594E-02 1.594E-02
     Generating pointlists ...

     total cpu time spent up to now is       45.3 secs

     per-process dynamical memory:   910.1 Mb

     Self-consistent Calculation

     iteration #  1     ecut=    50.00 Ry     beta= 0.20
     Davidson diagonalization with overlap
     ethr =  1.00E-06,  avg # of iterations = 13.0

     negative rho (up, down):  1.597E-02 1.597E-02

     total cpu time spent up to now is       47.8 secs

     total energy              =   -6966.42967835 Ry
     estimated scf accuracy    <       0.01780816 Ry

     total magnetization       =     0.00 Bohr mag/cell
     absolute magnetization    =     0.02 Bohr mag/cell

     iteration #  2     ecut=    50.00 Ry     beta= 0.20
     Davidson diagonalization with overlap
     ethr =  1.90E-06,  avg # of iterations =  2.0

     negative rho (up, down):  1.610E-02 1.610E-02

     total cpu time spent up to now is       49.0 secs

     total energy              =   -6966.42827978 Ry
     estimated scf accuracy    <       0.00919695 Ry

     total magnetization       =     0.00 Bohr mag/cell
     absolute magnetization    =     0.01 Bohr mag/cell

     iteration #  3     ecut=    50.00 Ry     beta= 0.20
     Davidson diagonalization with overlap
     ethr =  9.83E-07,  avg # of iterations =  1.5

     negative rho (up, down):  1.616E-02 1.616E-02

     total cpu time spent up to now is       50.1 secs

     total energy              =   -6966.42864301 Ry
     estimated scf accuracy    <       0.00124851 Ry

     total magnetization       =     0.00 Bohr mag/cell
     absolute magnetization    =     0.01 Bohr mag/cell

     iteration #  4     ecut=    50.00 Ry     beta= 0.20
     Davidson diagonalization with overlap
     ethr =  1.33E-07,  avg # of iterations =  2.0

     negative rho (up, down):  1.621E-02 1.621E-02

     total cpu time spent up to now is       51.3 secs

     total energy              =   -6966.42870397 Ry
     estimated scf accuracy    <       0.00029989 Ry

     total magnetization       =     0.00 Bohr mag/cell
     absolute magnetization    =     0.01 Bohr mag/cell

     iteration #  5     ecut=    50.00 Ry     beta= 0.20
     Davidson diagonalization with overlap
     ethr =  3.20E-08,  avg # of iterations =  5.0

     negative rho (up, down):  1.617E-02 1.617E-02

     total cpu time spent up to now is       52.7 secs

     total energy              =   -6966.42876281 Ry
     estimated scf accuracy    <       0.00006309 Ry

     total magnetization       =     0.00 Bohr mag/cell
     absolute magnetization    =     0.01 Bohr mag/cell

     iteration #  6     ecut=    50.00 Ry     beta= 0.20
     Davidson diagonalization with overlap
     ethr =  6.74E-09,  avg # of iterations =  3.0

     negative rho (up, down):  1.616E-02 1.616E-02

     total cpu time spent up to now is       53.9 secs

     total energy              =   -6966.42876930 Ry
     estimated scf accuracy    <       0.00001723 Ry

     total magnetization       =     0.00 Bohr mag/cell
     absolute magnetization    =     0.00 Bohr mag/cell

     iteration #  7     ecut=    50.00 Ry     beta= 0.20
     Davidson diagonalization with overlap
     ethr =  1.84E-09,  avg # of iterations =  4.0

     negative rho (up, down):  1.614E-02 1.614E-02

     total cpu time spent up to now is       55.2 secs

     total energy              =   -6966.42877064 Ry
     estimated scf accuracy    <       0.00000733 Ry

     total magnetization       =     0.00 Bohr mag/cell
     absolute magnetization    =     0.00 Bohr mag/cell

     iteration #  8     ecut=    50.00 Ry     beta= 0.20
     Davidson diagonalization with overlap
     ethr =  7.83E-10,  avg # of iterations =  3.0

     negative rho (up, down):  1.613E-02 1.613E-02

     total cpu time spent up to now is       56.5 secs

     total energy              =   -6966.42877175 Ry
     estimated scf accuracy    <       0.00000220 Ry

     total magnetization       =    -0.00 Bohr mag/cell
     absolute magnetization    =     0.00 Bohr mag/cell

     iteration #  9     ecut=    50.00 Ry     beta= 0.20
     Davidson diagonalization with overlap
     ethr =  2.35E-10,  avg # of iterations =  5.0

     negative rho (up, down):  1.613E-02 1.613E-02

     total cpu time spent up to now is       57.9 secs

     total energy              =   -6966.42877235 Ry
     estimated scf accuracy    <       0.00000108 Ry

     total magnetization       =    -0.00 Bohr mag/cell
     absolute magnetization    =     0.00 Bohr mag/cell

     iteration # 10     ecut=    50.00 Ry     beta= 0.20
     Davidson diagonalization with overlap
     ethr =  1.16E-10,  avg # of iterations =  2.0

     negative rho (up, down):  1.602E-02 1.602E-02
 
     Magnetic moment per site  (integrated on atomic sphere of radius R)
     atom   1 (R=0.049)  charge=  3.7617  magn= -0.0000
     atom   2 (R=0.049)  charge=  3.7906  magn= -0.0000
     atom   3 (R=0.049)  charge=  3.7581  magn= -0.0000
     atom   4 (R=0.049)  charge=  3.7733  magn= -0.0000
     atom   5 (R=0.049)  charge=  3.7767  magn=  0.0000
     atom   6 (R=0.049)  charge=  3.7951  magn= -0.0000
     atom   7 (R=0.049)  charge=  3.7711  magn= -0.0000
     atom   8 (R=0.049)  charge=  3.7549  magn= -0.0000
     atom   9 (R=0.049)  charge=  3.7934  magn= -0.0000
     atom  10 (R=0.049)  charge=  3.7811  magn=  0.0000
     atom  11 (R=0.049)  charge=  3.7761  magn= -0.0000
     atom  12 (R=0.049)  charge=  3.7776  magn= -0.0000
     atom  13 (R=0.049)  charge=  3.7850  magn=  0.0000
     atom  14 (R=0.049)  charge=  3.7927  magn=  0.0000
     atom  15 (R=0.049)  charge=  3.7816  magn= -0.0000
     atom  16 (R=0.049)  charge=  3.7372  magn= -0.0000
     atom  17 (R=0.049)  charge=  3.7629  magn= -0.0000
     atom  18 (R=0.049)  charge=  3.7691  magn= -0.0000
     atom  19 (R=0.049)  charge=  3.7532  magn= -0.0000
     atom  20 (R=0.049)  charge=  3.7670  magn= -0.0000
     atom  21 (R=0.049)  charge=  3.7793  magn= -0.0000
     atom  22 (R=0.049)  charge=  3.8015  magn= -0.0000
     atom  23 (R=0.049)  charge=  3.7678  magn= -0.0000
     atom  24 (R=0.049)  charge=  3.7754  magn= -0.0000
     atom  25 (R=0.049)  charge=  3.7577  magn= -0.0000
     atom  26 (R=0.049)  charge=  3.7959  magn=  0.0000
     atom  27 (R=0.049)  charge=  3.7424  magn= -0.0000
     atom  28 (R=0.049)  charge=  3.7608  magn= -0.0000
     atom  29 (R=0.049)  charge=  3.7729  magn= -0.0000
     atom  30 (R=0.049)  charge=  3.7711  magn=  0.0000
     atom  31 (R=0.049)  charge=  3.7668  magn= -0.0000
     atom  32 (R=0.049)  charge=  3.7643  magn=  0.0000
     atom  33 (R=0.049)  charge=  3.7931  magn=  0.0000
     atom  34 (R=0.049)  charge=  3.7870  magn=  0.0000
     atom  35 (R=0.049)  charge=  3.7537  magn= -0.0000
     atom  36 (R=0.049)  charge=  3.7592  magn= -0.0000
     atom  37 (R=0.049)  charge= 10.3511  magn= -0.0000
     atom  38 (R=0.049)  charge= 10.3276  magn=  0.0000
     atom  39 (R=0.049)  charge= 10.3358  magn= -0.0000
     atom  40 (R=0.049)  charge= 10.3423  magn= -0.0000
     atom  41 (R=0.049)  charge= 10.3472  magn= -0.0000
     atom  42 (R=0.049)  charge= 10.3625  magn=  0.0000
     atom  43 (R=0.049)  charge= 10.3329  magn=  0.0000
     atom  44 (R=0.049)  charge= 10.3080  magn= -0.0000
     atom  45 (R=0.049)  charge= 10.3370  magn=  0.0001
     atom  46 (R=0.049)  charge= 10.3374  magn= -0.0000
     atom  47 (R=0.049)  charge= 10.3706  magn=  0.0000
     atom  48 (R=0.049)  charge= 10.3301  magn= -0.0000
     atom  49 (R=0.049)  charge= 10.3552  magn=  0.0000
     atom  50 (R=0.049)  charge= 10.3468  magn=  0.0000
     atom  51 (R=0.049)  charge= 10.3219  magn= -0.0000
     atom  52 (R=0.049)  charge= 10.3293  magn=  0.0000
     atom  53 (R=0.049)  charge= 10.3332  magn=  0.0000
     atom  54 (R=0.049)  charge= 10.3532  magn=  0.0000
     atom  55 (R=0.049)  charge= 10.3384  magn=  0.0000
     atom  56 (R=0.049)  charge= 10.3353  magn=  0.0000
     atom  57 (R=0.049)  charge= 10.3486  magn= -0.0000
     atom  58 (R=0.049)  charge= 10.3404  magn=  0.0000
     atom  59 (R=0.049)  charge= 10.3263  magn= -0.0000
     atom  60 (R=0.049)  charge= 10.3161  magn=  0.0000
     atom  61 (R=0.049)  charge= 10.3508  magn=  0.0000
     atom  62 (R=0.049)  charge= 10.3191  magn= -0.0001
     atom  63 (R=0.049)  charge= 10.3272  magn=  0.0000
     atom  64 (R=0.049)  charge= 10.3405  magn=  0.0000
     atom  65 (R=0.049)  charge= 10.3258  magn= -0.0000
     atom  66 (R=0.049)  charge= 10.3465  magn= -0.0000
     atom  67 (R=0.049)  charge= 10.3244  magn=  0.0000
     atom  68 (R=0.049)  charge= 10.3647  magn= -0.0000
     atom  69 (R=0.049)  charge= 10.3676  magn=  0.0000
     atom  70 (R=0.049)  charge= 10.3447  magn= -0.0000
     atom  71 (R=0.049)  charge= 10.3278  magn= -0.0000
     atom  72 (R=0.049)  charge= 10.3248  magn= -0.0000
     atom  73 (R=0.049)  charge=  3.7968  magn= -0.0000
     atom  74 (R=0.049)  charge=  3.7496  magn= -0.0000
     atom  75 (R=0.049)  charge=  3.7727  magn= -0.0000
     atom  76 (R=0.049)  charge=  3.7928  magn= -0.0000
     atom  77 (R=0.049)  charge=  3.7990  magn=  0.0000
     atom  78 (R=0.049)  charge=  3.7665  magn= -0.0000
     atom  79 (R=0.049)  charge=  3.7674  magn= -0.0000
     atom  80 (R=0.049)  charge=  3.7785  magn=  0.0000
     atom  81 (R=0.049)  charge=  3.7753  magn=  0.0000
     atom  82 (R=0.049)  charge=  3.7524  magn= -0.0000
     atom  83 (R=0.049)  charge=  3.7826  magn= -0.0000
     atom  84 (R=0.049)  charge=  3.7702  magn= -0.0000
     atom  85 (R=0.049)  charge=  3.7578  magn=  0.0000
     atom  86 (R=0.049)  charge=  3.7734  magn=  0.0000
     atom  87 (R=0.049)  charge=  3.7578  magn=  0.0000
     atom  88 (R=0.049)  charge=  3.7690  magn= -0.0000
     atom  89 (R=0.049)  charge=  3.7935  magn=  0.0000
     atom  90 (R=0.049)  charge=  3.7762  magn= -0.0000
     atom  91 (R=0.049)  charge=  3.7776  magn= -0.0000
     atom  92 (R=0.049)  charge=  3.7824  magn= -0.0000
     atom  93 (R=0.049)  charge=  3.7791  magn= -0.0000
     atom  94 (R=0.049)  charge=  3.7578  magn= -0.0000
     atom  95 (R=0.049)  charge=  3.7599  magn=  0.0000
     atom  96 (R=0.049)  charge=  3.7663  magn=  0.0000
     atom  97 (R=0.049)  charge=  3.7643  magn= -0.0000
     atom  98 (R=0.049)  charge=  3.7808  magn=  0.0000
     atom  99 (R=0.049)  charge=  3.7559  magn= -0.0000
     atom 100 (R=0.049)  charge=  3.7808  magn= -0.0000
     atom 101 (R=0.049)  charge=  3.7560  magn=  0.0000
     atom 102 (R=0.049)  charge=  3.7889  magn=  0.0000
     atom 103 (R=0.049)  charge=  3.7732  magn=  0.0000
     atom 104 (R=0.049)  charge=  3.7895  magn= -0.0000
     atom 105 (R=0.049)  charge=  3.7868  magn= -0.0000
     atom 106 (R=0.049)  charge=  3.7521  magn= -0.0000
     atom 107 (R=0.049)  charge=  3.7778  magn= -0.0000
     atom 108 (R=0.049)  charge=  3.7648  magn= -0.0000

     total cpu time spent up to now is       58.9 secs

     End of self-consistent calculation

 ------ SPIN UP ------------


          k = 0.0000 0.0000 0.0000 (128566 PWs)   bands (ev):

   -62.1772 -62.1769 -62.1666 -62.1468 -62.1250 -62.0747 -62.0709 -62.0668
   -62.0557 -62.0306 -62.0117 -62.0074 -62.0067 -62.0030 -61.9956 -61.9721
   -61.9643 -61.9595 -61.9441 -61.9405 -61.9329 -61.9286 -61.9119 -61.9109
[...]
     xc contribution           =   -1531.94473877 Ry
     ewald contribution        =   14481.99001860 Ry
     DFT-D3 Dispersion         =      -1.28599127 Ry
     one-center paw contrib.   =       0.00000000 Ry

     total magnetization       =     0.00 Bohr mag/cell
     absolute magnetization    =     0.00 Bohr mag/cell

     convergence has been achieved in  28 iterations

     negative rho (up, down):  1.611E-02 1.611E-02

     Forces acting on atoms (cartesian axes, Ry/au):

     atom    1 type  2   force =    -0.00042977    0.00021353    0.00006302
     atom    2 type  2   force =    -0.00015406   -0.00025447    0.00039196
     atom    3 type  2   force =    -0.00039147    0.00007298    0.00007381
     atom    4 type  2   force =    -0.00034010   -0.00007093   -0.00035889
     atom    5 type  2   force =    -0.00031180   -0.00018441    0.00057945
     atom    6 type  2   force =     0.00025053    0.00039583    0.00070814
     atom    7 type  2   force =     0.00044367    0.00006943    0.00007100
     atom    8 type  2   force =    -0.00014613    0.00001426    0.00008236
     atom    9 type  2   force =    -0.00016288   -0.00000287   -0.00000711
     atom   10 type  2   force =    -0.00003980   -0.00005271   -0.00016049
     atom   11 type  2   force =    -0.00017580   -0.00061402   -0.00004980
     atom   12 type  2   force =     0.00003821    0.00001635    0.00036202
     atom   13 type  2   force =    -0.00022095   -0.00018124    0.00023451
     atom   14 type  2   force =    -0.00030516   -0.00025510    0.00059982
     atom   15 type  2   force =     0.00001507   -0.00013734    0.00003092
     atom   16 type  2   force =     0.00050004    0.00012542   -0.00045736
     atom   17 type  2   force =     0.00013176    0.00025463    0.00053744
     atom   18 type  2   force =     0.00008442    0.00007600    0.00049243
     atom   19 type  2   force =     0.00024504    0.00022408   -0.00002570
     atom   20 type  2   force =    -0.00011144    0.00043694    0.00039870
     atom   21 type  2   force =     0.00019712    0.00012285   -0.00044526
     atom   22 type  2   force =     0.00016883   -0.00020111   -0.00064093
     atom   23 type  2   force =     0.00008183   -0.00011782    0.00020463
     atom   24 type  2   force =     0.00036505   -0.00033022   -0.00030041
     atom   25 type  2   force =    -0.00025299   -0.00015631   -0.00021009
     atom   26 type  2   force =     0.00011150    0.00009287    0.00014434
     atom   27 type  2   force =     0.00016652    0.00024845    0.00020860
     atom   28 type  2   force =     0.00014448    0.00000800   -0.00032807
     atom   29 type  2   force =    -0.00032608    0.00047647    0.00033912
     atom   30 type  2   force =    -0.00014735   -0.00028819    0.00057500
     atom   31 type  2   force =    -0.00025173   -0.00022817   -0.00067033
     atom   32 type  2   force =     0.00003651    0.00042493    0.00041914
     atom   33 type  2   force =    -0.00004238    0.00001521    0.00014194
     atom   34 type  2   force =    -0.00007204   -0.00039525   -0.00008836
     atom   35 type  2   force =    -0.00017380    0.00016589   -0.00008088
     atom   36 type  2   force =     0.00007520   -0.00002405    0.00006990
     atom   37 type  1   force =    -0.00028441    0.00002488    0.00054010
     atom   38 type  1   force =     0.00022591   -0.00013151   -0.00011624
     atom   39 type  1   force =    -0.00000762    0.00028115   -0.00036633
     atom   40 type  1   force =    -0.00008543   -0.00016019   -0.00032827
     atom   41 type  1   force =    -0.00072500   -0.00035016    0.00029075
     atom   42 type  1   force =     0.00026548    0.00033776   -0.00019067
     atom   43 type  1   force =    -0.00022321   -0.00020297    0.00056782
     atom   44 type  1   force =    -0.00032940   -0.00022717   -0.00025862
     atom   45 type  1   force =     0.00030896    0.00004251   -0.00003576
     atom   46 type  1   force =    -0.00003129    0.00022841   -0.00038493
     atom   47 type  1   force =    -0.00005017    0.00016761   -0.00011169
     atom   48 type  1   force =     0.00021773    0.00045502    0.00026818
     atom   49 type  1   force =     0.00013794    0.00049691    0.00018949
     atom   50 type  1   force =     0.00006401    0.00007872    0.00048213
     atom   51 type  1   force =    -0.00019743    0.00026265    0.00010558
     atom   52 type  1   force =    -0.00006842   -0.00021076    0.00033654
     atom   53 type  1   force =    -0.00027714    0.00001716    0.00012497
     atom   54 type  1   force =    -0.00002682   -0.00005995    0.00023572
     atom   55 type  1   force =     0.00008363   -0.00028867    0.00034446
     atom   56 type  1   force =     0.00002161   -0.00019276   -0.00004571
     atom   57 type  1   force =    -0.00046970   -0.00000789   -0.00068723
     atom   58 type  1   force =    -0.00015661   -0.00012312   -0.00045388
     atom   59 type  1   force =    -0.00002439   -0.00003167    0.00050150
     atom   60 type  1   force =     0.00060296   -0.00004965    0.00035954
     atom   61 type  1   force =    -0.00011363   -0.00023219    0.00013137
     atom   62 type  1   force =     0.00017718   -0.00003018   -0.00016183
     atom   63 type  1   force =    -0.00004201   -0.00011374    0.00011108
     atom   64 type  1   force =    -0.00033450    0.00003553   -0.00036132
     atom   65 type  1   force =     0.00012453   -0.00005256   -0.00018293
     atom   66 type  1   force =    -0.00021063    0.00016679    0.00038523
     atom   67 type  1   force =     0.00010903   -0.00009164    0.00001987
     atom   68 type  1   force =    -0.00008122   -0.00009271   -0.00000573
     atom   69 type  1   force =     0.00021586    0.00017619   -0.00042599
     atom   70 type  1   force =    -0.00005314    0.00019005   -0.00003811
     atom   71 type  1   force =    -0.00011156   -0.00019537    0.00000159
     atom   72 type  1   force =    -0.00010025   -0.00001527    0.00025263
     atom   73 type  2   force =     0.00002002    0.00010188   -0.00014256
     atom   74 type  2   force =    -0.00007900    0.00039443    0.00001153
     atom   75 type  2   force =    -0.00034686    0.00015390   -0.00002125
     atom   76 type  2   force =    -0.00015400   -0.00024424   -0.00014580
     atom   77 type  2   force =    -0.00003285   -0.00037602    0.00034355
     atom   78 type  2   force =     0.00021659   -0.00009161    0.00016046
     atom   79 type  2   force =     0.00038106    0.00006561   -0.00023823
     atom   80 type  2   force =    -0.00009070   -0.00000757   -0.00036395
     atom   81 type  2   force =     0.00035882   -0.00005369   -0.00053367
     atom   82 type  2   force =     0.00004320   -0.00053016   -0.00035445
     atom   83 type  2   force =     0.00008152   -0.00014245   -0.00025654
     atom   84 type  2   force =     0.00007681    0.00052441   -0.00004727
     atom   85 type  2   force =     0.00001551    0.00019094   -0.00015381
     atom   86 type  2   force =    -0.00039414    0.00035764   -0.00014327
     atom   87 type  2   force =     0.00007253   -0.00019891   -0.00053700
     atom   88 type  2   force =     0.00038071   -0.00051471   -0.00001308
     atom   89 type  2   force =     0.00043049    0.00016509    0.00004689
     atom   90 type  2   force =     0.00043103    0.00005223    0.00008898
     atom   91 type  2   force =    -0.00013203    0.00017877   -0.00009328
     atom   92 type  2   force =     0.00017168   -0.00001812   -0.00001278
     atom   93 type  2   force =    -0.00010679   -0.00016947    0.00011614
     atom   94 type  2   force =     0.00008123   -0.00020218    0.00018922
     atom   95 type  2   force =     0.00024745   -0.00010851   -0.00016904
     atom   96 type  2   force =     0.00013908   -0.00014165    0.00021195
     atom   97 type  2   force =     0.00035953    0.00045083    0.00015123
     atom   98 type  2   force =     0.00027109    0.00039989   -0.00018309
     atom   99 type  2   force =     0.00022336    0.00024184   -0.00046655
     atom  100 type  2   force =    -0.00010356   -0.00007592   -0.00007448
     atom  101 type  2   force =    -0.00015350    0.00014520   -0.00025291
     atom  102 type  2   force =     0.00031254    0.00004789    0.00010417
     atom  103 type  2   force =     0.00017526   -0.00014961    0.00006717
     atom  104 type  2   force =     0.00019596   -0.00017014   -0.00047176
     atom  105 type  2   force =    -0.00025204   -0.00021587   -0.00058463
     atom  106 type  2   force =    -0.00027006   -0.00017477   -0.00012784
     atom  107 type  2   force =    -0.00007886    0.00004422   -0.00033086
     atom  108 type  2   force =    -0.00004201    0.00000964    0.00022891

     Total force =     0.004741     Total SCF correction =     0.000188
     Energy error            =      4.2E-05 Ry
     Gradient error          =      7.2E-04 Ry/Bohr

     bfgs converged in  33 scf cycles and  32 bfgs steps
     (criteria: energy <  1.0E-04 Ry, force <  1.0E-03 Ry/Bohr)

     End of BFGS Geometry Optimization

     Final energy             =   -6966.7534238787 Ry

     File ./OUT/pwscf.bfgs deleted, as requested
Begin final coordinates

ATOMIC_POSITIONS (angstrom)
S               19.1642846317        3.6751374635       19.9238950312
S                1.6080388545        0.8821655965       19.8206311221
S               -0.0095250167        9.2639635348        0.2293214966
S                1.5316241946        6.5007413055        0.1727466922
S               19.2609369469       14.8103655655       19.8394409255
S                1.6427639342       12.0346764147       -0.1102936828
S                3.0791073917        3.7706841049        0.0528247896
S                4.7655847750        0.9403198368        0.2231900686
S                3.2084154155        9.2574088653       19.8259122306
S                4.7706967265        6.5245119730       19.7932453659
S                3.2846960787       14.6845153401        0.0366723568
S                4.8540860428       11.9810937882        0.2058762012
S                6.3673383081        3.6772220659       -0.0833952650
S                8.0073201192        0.8783926550       19.8149571615
S                6.3856860946        9.2637306657        0.2245999250
S                7.9280322684        6.5011667958        0.1696714644
S                6.4637527332       14.8067965163       19.8335283163
S                8.0413821308       12.0350519377       19.8865063065
S                9.4786939557        3.7715996949       20.0475069975
S               11.1652435998        0.9365670815        0.2249843601
S                9.6061128740        9.2589525517       19.8252603080
S               11.1699245260        6.5262715018       19.7942009038
S                9.6849702415       14.6804539683        0.0392245823
S               11.2539504692       11.9833375014        0.2161195114
S               12.7689262571        3.6759632780       -0.0770651287
S               14.4046678135        0.8779426968       19.8263367980
S               12.7865336275        9.2647763670        0.2306312012
S               14.3283400424        6.5021952187        0.1755272398
S               12.8657558959       14.8056818681       19.8450544760
S               14.4413326458       12.0366641147       -0.1034945662
S               15.8771509787        3.7714353994       20.0599575371
S               17.5603120982        0.9384486975        0.2297353524
S               16.0045160794        9.2598916347       19.8308448702
S               17.5674038382        6.5248717916       19.7977046227
S               16.0820737087       14.6810789575        0.0472094358
S               17.6520007354       11.9822250199        0.2160252323
Mo               0.2221623352       16.5231789935        1.5406813689
Mo               1.5219467278        2.4809013475        1.5669176377
Mo              18.8614922220        5.4832871990        1.4892163663
Mo               1.8432635645        8.4582845632        1.6662180312
Mo               0.3184510023       11.2323103711        1.6871784466
Mo               1.4835153791       13.8141970516        1.5450672580
Mo               2.9487538584       16.4629994869        1.5120876273
Mo               4.7481584732        3.0652880831        1.4990392413
Mo               3.3559988275        5.7408896336        1.6158920340
Mo               4.5478920688        8.1934564052        1.4950234970
Mo               3.0299317240       10.9229417884        1.5132116674
Mo               5.1354564314       13.9766500973        1.6111663064
Mo               6.6177083468       16.5200569560        1.5347798689
Mo               7.9188436704        2.4800469795        1.5583484421
Mo               6.0651809136        5.4831618446        1.4843461495
Mo               8.2387798823        8.4588251105        1.6625521198
Mo               6.7122276586       11.2314540494        1.6814579621
Mo               7.8790179090       13.8126933848        1.5423582589
Mo               9.3440889425       -0.1612095255        1.5110058288
Mo              11.1420011309        3.0649440236        1.4969208780
Mo               9.7539682322        5.7417188973        1.6142708161
Mo              10.9446881591        8.1960327165        1.4947704541
Mo               9.4242966449       10.9251488517        1.5123976955
Mo              11.5334869207       13.9788916056        1.6209781165
Mo              13.0165492349       -0.1014646680        1.5446428362
Mo              14.3164867521        2.4793537019        1.5702737999
Mo              12.4619232528        5.4843764758        1.4863058821
Mo              14.6393419611        8.4585130400        1.6702962989
Mo              13.1119093461       11.2316425016        1.6910548009
Mo              14.2795010730       13.8123117795        1.5531859841
Mo              15.7431822943       -0.1607346436        1.5207993693
Mo              17.5441595498        3.0650363134        1.5052168554
Mo              16.1521138661        5.7417691812        1.6210567458
Mo              17.3445522811        8.1949693371        1.4976953120
Mo              15.8253239406       10.9249905865        1.5200145338
Mo              17.9348067560       13.9794197705        1.6191294402
S               19.1031451309        1.8069731121        3.0829028983
S                1.5375863069        4.6022588042        2.8740225108
S               19.1869305053        7.4005258637        2.9654137271
S                1.6509476591       10.1608428323        3.3466044238
S                0.0627648124       12.9425107899        3.3168594354
S                1.6096266774       15.6168809775        3.2613065802
S                3.1897386534        1.8051529588        3.0448814862
S                4.7060608799        4.6224081706        3.2786260571
S                3.1806119067        7.3799817096        3.3281212929
S                4.8572624400       10.1538596770        2.9635952968
S                3.3191912312       12.9303555746        2.9375587174
S                4.8098539040       15.7671285016        3.0746673199
S                6.3064130292        1.8056593068        3.0752430833
S                7.9352499166        4.6012616939        2.8689921137
S                6.3877404141        7.4010939299        2.9638277160
S                8.0421664347       10.1613939694        3.3426544694
S                6.4536974808       12.9396207287        3.3117870180
S                8.0020525255       15.6153279939        3.2584246313
S                9.5849671987        1.8045986669        3.0401322479
S               11.0988316026        4.6215183898        3.2768541367
S                9.5771648768        7.3818272763        3.3246962345
S               11.2526671543       10.1532702338        2.9641405213
S                9.7126310293       12.9301745626        2.9397105642
S               11.2032120712       15.7714646449        3.0795867990
S               12.6988595933        1.8071817817        3.0809906761
S               14.3298245188        4.6027833006        2.8759428255
S               12.7841449891        7.3999111862        2.9661914639
S               14.4440655918       10.1598343955        3.3510964287
S               12.8533803150       12.9401155927        3.3221244222
S               14.4016973052       15.6163976754        3.2687894269
S               15.9840070801        1.8066184327        3.0496451055
S               17.5008640708        4.6236515523        3.2839821476
S               15.9796239313        7.3826327706        3.3320602388
S               17.6574682051       10.1531642885        2.9667328640
S               16.1178504351       12.9303380173        2.9458147250
S               17.6081289038       15.7708892188        3.0808699139
End final coordinates


     Message from routine punch:
     Nothing written, as per user request (disk_io='none')
 
     init_run     :      8.17s CPU      9.25s WALL (       1 calls)
     electrons    :    620.28s CPU    516.59s WALL (      34 calls)
     update_pot   :     19.91s CPU      7.58s WALL (      32 calls)
     forces       :     34.79s CPU     16.99s WALL (      34 calls)
     force_dftd3  :      2.18s CPU      2.11s WALL (      34 calls)

     Called by init_run:
     wfcinit      :      0.21s CPU      0.81s WALL (       1 calls)
     potinit      :      2.52s CPU      2.53s WALL (       2 calls)
     hinit0       :      5.09s CPU      4.91s WALL (       1 calls)

     Called by electrons:
     c_bands      :    196.56s CPU    201.10s WALL (     401 calls)
     sum_band     :     85.89s CPU     86.96s WALL (     401 calls)
     v_of_rho     :     29.44s CPU     26.98s WALL (     421 calls)
     newd         :     47.33s CPU     46.92s WALL (     421 calls)
                                       43.55s GPU  (     420 calls)
     PAW_pot      :      7.62s CPU      7.59s WALL (     453 calls)
     mix_rho      :    133.62s CPU     68.48s WALL (     401 calls)
     energy_dftd3 :      1.03s CPU      1.03s WALL (      34 calls)

     Called by c_bands:
     init_us_2    :      3.35s CPU      3.40s WALL (     835 calls)
     regterg      :    179.33s CPU    182.49s WALL (     402 calls)

     Called by *egterg:
     rdiaghg      :     29.12s CPU     29.65s WALL (    1735 calls)
                                       29.64s GPU  (    1735 calls)
     h_psi        :    108.30s CPU    110.75s WALL (    1784 calls)
                                      110.73s GPU  (    1784 calls)
     s_psi        :      1.24s CPU      1.26s WALL (    1784 calls)
     g_psi        :      0.01s CPU      0.67s WALL (    1381 calls)
                                        0.66s GPU  (    1381 calls)

     Called by h_psi:
     h_psi:calbec :      9.68s CPU     10.31s WALL (    1784 calls)
                                       10.30s GPU  (    1784 calls)
     vloc_psi     :     90.46s CPU     92.17s WALL (    1784 calls)
                                       92.16s GPU  (    1784 calls)
     add_vuspsi   :      0.99s CPU      7.03s WALL (    1784 calls)
                                        7.00s GPU  (    1784 calls)

     General routines
     calbec       :     70.21s CPU     22.68s WALL (    2353 calls)
     fft          :     76.19s CPU     43.70s WALL (    8064 calls)
                                        6.21s GPU  (    7222 calls)
     ffts         :     60.64s CPU     23.74s WALL (   44662 calls)
                                       11.85s GPU  (   43820 calls)
     fftw         :     59.37s CPU     91.87s WALL (  150637 calls)
                                       90.54s GPU  (  150637 calls)
     interpolate  :    107.40s CPU     59.99s WALL (     842 calls)
 
     Parallel routines
 
     PWSCF        :  15m 5.72s CPU  12m 0.13s WALL

 
   This run was terminated on:  18:56:25  12Nov2025            

=------------------------------------------------------------------------------=
   JOB DONE.
=------------------------------------------------------------------------------=
