<UPF version="2.0.1">
<PP_INFO>
Generated by new atomic code, or converted to UPF format
Author:
Generation date:
Pseudopotential type: US
Element: Fe
Functional:  SLA  PW   PBE  PBE
Suggested minimum cutoff for wavefunctions:   0. Ry
Suggested minimum cutoff for charge density:   0. Ry
The Pseudo was generated with a Scalar-Relativistic Calculation
L component and cutoff radius for Local Potential:  0   0.0000
Valence configuration:
nl pn  l   occ       Rcut    Rcut US       E pseu
3S  0  0  2.00     10.000      1.700     0.000000
3P  0  1  6.00     10.000      1.700     0.000000
3D  0  2  6.00     10.000      1.700     0.000000
4S  0  0  2.00     10.000      1.700     0.000000
4P  0  1  0.00     10.000      1.700     0.000000
Generation configuration: not available.
</PP_INFO>
<!--
END OF HUMAN READABLE SECTION
-->
<PP_HEADER generated="Generated by new atomic code, or converted to UPF format" author="" date="" comment="" element="Fe" pseudo_type="US" relativistic="scalar" is_ultrasoft="true" is_paw="false" is_coulomb="false" has_so="false" has_wfc="false" has_gipaw="false" paw_as_gipaw="false" core_correction="false" functional=" SLA  PW   PBE  PBE" z_valence="1.600000000000e1" total_psenergy="-2.485911966590e2" wfc_cutoff="0.000000000000e0" rho_cutoff="0.000000000000e0" l_max="2" l_max_rho="0" l_local="0" mesh_size="601" number_of_wfc="5" number_of_proj="6"/>
<PP_MESH mesh="601" rmax="3.116569788010e2" zmesh="2.600000000000e1">
<PP_R>
0.000000000000000e0 2.413458080870000e-6 4.888013143930000e-6 7.425211866660000e-6
1.002664008080000e-5 1.269392376380000e-5 1.542873005470000e-5 1.823276829640000e-5
2.110779110420000e-5 2.405559546090000e-5 2.707802384010000e-5 3.017696535810000e-5
3.335435695400000e-5 3.661218460120000e-5 3.995248454790001e-5 4.337734459040000e-5
4.688890537760001e-5 5.048936174930001e-5 5.418096410810000e-5 5.796601982549999e-5
6.184689468450001e-5 6.582601435839999e-5 6.990586592640001e-5 7.408899942850001e-5
7.837802945950001e-5 8.277563680260000e-5 8.728457010560000e-5 9.190764759859999e-5
9.664775885550000e-5 1.015078666000000e-4 1.064910085580000e-4 1.116002993560000e-4
1.168389324650000e-4 1.222101822030000e-4 1.277174057760000e-4 1.333640453770000e-4
1.391536303400000e-4 1.450897793450000e-4 1.511762026770000e-4 1.574167045490000e-4
1.638151854780000e-4 1.703756447230000e-4 1.771021827840000e-4 1.839990039670000e-4
1.910704190100000e-4 1.983208477770000e-4 2.057548220220000e-4 2.133769882200001e-4
2.211921104750000e-4 2.292050734920000e-4 2.374208856330000e-4 2.458446820490000e-4
2.544817278860000e-4 2.633374215790000e-4 2.724172982260000e-4 2.817270330440000e-4
2.912724449220000e-4 3.010595000510000e-4 3.110943156610000e-4 3.213831638370000e-4
3.319324754450000e-4 3.427488441480000e-4 3.538390305279999e-4 3.652099663130000e-4
3.768687587080000e-4 3.888226948370000e-4 4.010792463010000e-4 4.136460738410000e-4
4.265310321359999e-4 4.397421747030000e-4 4.532877589360000e-4 4.671762512660000e-4
4.814163324540001e-4 4.960169030140000e-4 5.109870887760000e-4 5.263362465960000e-4
5.420739701960001e-4 5.582100961649999e-4 5.747547101090000e-4 5.917181529480001e-4
6.091110273869999e-4 6.269442045390000e-4 6.452288307200000e-4 6.639763344160000e-4
6.831984334280000e-4 7.029071421940001e-4 7.231147792970001e-4 7.438339751680000e-4
7.650776799810000e-4 7.868591717410000e-4 8.091920645900002e-4 8.320903173130000e-4
8.555682420640000e-4 8.796405133099999e-4 9.043221770030001e-4 9.296286599879998e-4
9.555757796390001e-4 9.821797537520000e-4 1.009457210680000e-3 1.037425199710000e-3
1.066101201760000e-3 1.095503140250000e-3 1.125649392360000e-3 1.156558800480000e-3
1.188250683990000e-3 1.220744851350000e-3 1.254061612470000e-3 1.288221791410000e-3
1.323246739410000e-3 1.359158348180000e-3 1.395979063660000e-3 1.433731899980000e-3
1.472440453910000e-3 1.512128919550000e-3 1.552822103480000e-3 1.594545440260000e-3
1.637325008340000e-3 1.681187546350000e-3 1.726160469790000e-3 1.772271888210000e-3
1.819550622740000e-3 1.868026224130000e-3 1.917728991220000e-3 1.968689989850000e-3
2.020941072300000e-3 2.074514897200000e-3 2.129444949930000e-3 2.185765563570000e-3
2.243511940330000e-3 2.302720173580000e-3 2.363427270390000e-3 2.425671174670000e-3
2.489490790890000e-3 2.554926008380000e-3 2.622017726300000e-3 2.690807879140000e-3
2.761339462990000e-3 2.833656562380000e-3 2.907804377860001e-3 2.983829254230000e-3
3.061778709510000e-3 3.141701464640000e-3 3.223647473950000e-3 3.307667956360000e-3
3.393815427410000e-3 3.482143732080000e-3 3.572708078420000e-3 3.665565072100000e-3
3.760772751770000e-3 3.858390625330000e-3 3.958479707120000e-3 4.061102556080000e-3
4.166323314830001e-3 4.274207749770000e-3 4.384823292190000e-3 4.498239080389999e-3
4.614526002940000e-3 4.733756742940000e-3 4.856005823510000e-3 4.981349654280001e-3
5.109866579230000e-3 5.241636925630000e-3 5.376743054220000e-3 5.515269410750000e-3
5.657302578690000e-3 5.802931333390000e-3 5.952246697580001e-3 6.105341998200000e-3
6.262312924800001e-3 6.423257589340001e-3 6.588276587449999e-3 6.757473061390000e-3
6.930952764460001e-3 7.108824127129999e-3 7.291198324770000e-3 7.478189347210000e-3
7.669914069920001e-3 7.866492327100001e-3 8.068046986539999e-3 8.274704026480000e-3
8.486592614299999e-3 8.703845187250002e-3 8.926597535270000e-3 9.154988885830001e-3
9.389161990960000e-3 9.629263216460000e-3 9.875442633430000e-3 1.012785411200000e-2
1.038665541760000e-2 1.065200830940000e-2 1.092407864170000e-2 1.120303646720000e-2
1.148905614370000e-2 1.178231644270000e-2 1.208300066160000e-2 1.239129673780000e-2
1.270739736620000e-2 1.303150012020000e-2 1.336380757440000e-2 1.370452743190000e-2
1.405387265360000e-2 1.441206159180000e-2 1.477931812610000e-2 1.515587180380000e-2
1.554195798320000e-2 1.593781798080000e-2 1.634369922200000e-2 1.675985539570000e-2
1.718654661310000e-2 1.762403957010000e-2 1.807260771400000e-2 1.853253141460000e-2
1.900409813900000e-2 1.948760263200000e-2 1.998334709940000e-2 2.049164139780000e-2
2.101280322760000e-2 2.154715833190000e-2 2.209504070010000e-2 2.265679277650000e-2
2.323276567450000e-2 2.382331939570000e-2 2.442882305560000e-2 2.504965511360000e-2
2.568620361000000e-2 2.633886640820000e-2 2.700805144390000e-2 2.769417697940000e-2
2.839767186560000e-2 2.911897580960000e-2 2.985853964980000e-2 3.061682563780000e-2
3.139430772700000e-2 3.219147186890000e-2 3.300881631719999e-2 3.384685193880000e-2
3.470610253300000e-2 3.558710515970000e-2 3.649041047400000e-2 3.741658307120000e-2
3.836620183940001e-2 3.933986032109999e-2 4.033816708460000e-2 4.136174610420000e-2
4.241123715000001e-2 4.348729618810000e-2 4.459059579040000e-2 4.572182555520000e-2
4.688169253780000e-2 4.807092169290000e-2 4.929025632729999e-2 5.054045856500000e-2
5.182230982310000e-2 5.313661130020000e-2 5.448418447760000e-2 5.586587163240000e-2
5.728253636400000e-2 5.873506413410000e-2 6.022436281980000e-2 6.175136328110000e-2
6.331701994320000e-2 6.492231139240000e-2 6.656824098810000e-2 6.825583748990000e-2
6.998615570049999e-2 7.176027712520000e-2 7.357931064759999e-2 7.544439322280000e-2
7.735669058819999e-2 7.931739799190001e-2 8.132774093980000e-2 8.338897596180001e-2
8.550239139680000e-2 8.766930819820001e-2 8.989108075960001e-2 9.216909776120000e-2
9.450478303770000e-2 9.689959646849999e-2 9.935503488999998e-2 1.018726330310000e-1
1.044539644720000e-1 1.071006426300000e-1 1.098143217650000e-1 1.125966980140000e-1
1.154495104530000e-1 1.183745421820000e-1 1.213736214430000e-1 1.244486227560000e-1
1.276014680980000e-1 1.308341281010000e-1 1.341486232800000e-1 1.375470253050000e-1
1.410314582860000e-1 1.446041001090000e-1 1.482671837890000e-1 1.520229988750000e-1
1.558738928720000e-1 1.598222727150000e-1 1.638706062690000e-1 1.680214238750000e-1
1.722773199290000e-1 1.766409545050000e-1 1.811150550160000e-1 1.857024179210000e-1
1.904059104700000e-1 1.952284725000000e-1 2.001731182690000e-1 2.052429383420000e-1
2.104411015210000e-1 2.157708568280000e-1 2.212355355320000e-1 2.268385532360000e-1
2.325834120090000e-1 2.384737025740000e-1 2.445131065550000e-1 2.507053987750000e-1
2.570544496190000e-1 2.635642274510000e-1 2.702388010930000e-1 2.770823423710000e-1
2.840991287210000e-1 2.912935458640000e-1 2.986700905430000e-1 3.062333733410000e-1
3.139881215530000e-1 3.219391821520000e-1 3.300915248080000e-1 3.384502450000000e-1
3.470205672020000e-1 3.558078481430000e-1 3.648175801610000e-1 3.740553946300000e-1
3.835270654860000e-1 3.932385128310000e-1 4.031958066370000e-1 4.134051705350000e-1
4.238729857100000e-1 4.346057948890000e-1 4.456103064250000e-1 4.568933984970000e-1
4.684621234050000e-1 4.803237119780000e-1 4.924855780960000e-1 5.049553233200000e-1
5.177407416470000e-1 5.308498243799999e-1 5.442907651230000e-1 5.580719649010000e-1
5.722020374110000e-1 5.866898144109999e-1 6.015443512310000e-1 6.167749324420000e-1
6.323910776510000e-1 6.484025474579999e-1 6.648193495530000e-1 6.816517449720000e-1
6.989102545100000e-1 7.166056652970000e-1 7.347490375410000e-1 7.533517114390000e-1
7.724253142700000e-1 7.919817676549999e-1 8.120332950140000e-1 8.325924292050001e-1
8.536720203560000e-1 8.752852438980000e-1 8.974456087990001e-1 9.201669660080000e-1
9.434635171130001e-1 9.673498232170001e-1 9.918408140390000e-1 1.016951797250000e0
1.042698468020000e0 1.069096918870000e0 1.096163649680000e0 1.123915578040000e0
1.152370049820000e0 1.181544849970000e0 1.211458213710000e0 1.242128837860000e0
1.273575892560000e0 1.305819033230000e0 1.338878412900000e0 1.372774694750000e0
1.407529065060000e0 1.443163246440000e0 1.479699511420000e0 1.517160696350000e0
1.555570215690000e0 1.594952076640000e0 1.635330894150000e0 1.676731906290000e0
1.719180990040000e0 1.762704677470000e0 1.807330172280000e0 1.853085366880000e0
1.899998859740000e0 1.948099973330000e0 1.997418772410000e0 2.047986082830000e0
2.099833510810000e0 2.152993462670000e0 2.207499165130000e0 2.263384686010000e0
2.320684955580000e0 2.379435788390000e0 2.439673905610000e0 2.501436958030000e0
2.564763549570000e0 2.629693261400000e0 2.696266676710000e0 2.764525406060000e0
2.834512113360000e0 2.906270542600000e0 2.979845545120000e0 3.055283107700000e0
3.132630381260000e0 3.211935710380000e0 3.293248663460000e0 3.376620063750000e0
3.462102021090000e0 3.549747964480000e0 3.639612675490000e0 3.731752322490000e0
3.826224495760000e0 3.923088243480000e0 4.022404108650000e0 4.124234166920000e0
4.228642065380000e0 4.335693062380000e0 4.445454068270000e0 4.557993687250000e0
4.673382260250000e0 4.791691908890000e0 4.912996580530000e0 5.037372094560000e0
5.164896189720000e0 5.295648572720000e0 5.429710968050000e0 5.567167169080000e0
5.708103090400000e0 5.852606821560000e0 6.000768682090000e0 6.152681277970000e0
6.308439559530000e0 6.468140880760000e0 6.631885060180000e0 6.799774443240000e0
6.971913966270000e0 7.148411222070000e0 7.329376527170000e0 7.514922990780000e0
7.705166585490000e0 7.900226219720000e0 8.100223812099999e0 8.305284367630000e0
8.515536055849999e0 8.731110290889999e0 8.952141813670000e0 9.178768776100000e0
9.411132827390000e0 9.649379202640000e0 9.893656813600000e0 1.014411834170000e1
1.040092033360000e1 1.066422329890000e1 1.093419181050000e1 1.121099460740000e1
1.149480470060000e1 1.178579948040000e1 1.208416082820000e1 1.239007522950000e1
1.270373389070000e1 1.302533285870000e1 1.335507314330000e1 1.369316084300000e1
1.403980727360000e1 1.439522910030000e1 1.475964847340000e1 1.513329316690000e1
1.551639672080000e1 1.590919858730000e1 1.631194428050000e1 1.672488552940000e1
1.714828043580000e1 1.758239363530000e1 1.802749646270000e1 1.848386712190000e1
1.895179085930000e1 1.943156014250000e1 1.992347484290000e1 2.042784242330000e1
2.094497812980000e1 2.147520518900000e1 2.201885501010000e1 2.257626739190000e1
2.314779073540000e1 2.373378226120000e1 2.433460823310000e1 2.495064418690000e1
2.558227516510000e1 2.622989595760000e1 2.689391134860000e1 2.757473636920000e1
2.827279655730000e1 2.898852822320000e1 2.972237872240000e1 3.047480673550000e1
3.124628255440000e1 3.203728837670000e1 3.284831860670000e1 3.367988016470000e1
3.453249280380000e1 3.540668943460000e1 3.630301645840000e1 3.722203410890000e1
3.816431680200001e1 3.913045349510000e1 4.012104805490000e1 4.113671963550000e1
4.217810306450001e1 4.324584924050000e1 4.434062553970000e1 4.546311623280000e1
4.661402291310000e1 4.779406493470001e1 4.900397986240001e1 5.024452393220001e1
5.151647252470000e1 5.282062064910001e1 5.415778344050000e1 5.552879666910000e1
5.693451726280000e1 5.837582384270000e1 5.985361727250001e1 6.136882122100000e1
6.292238274010000e1 6.451527285640001e1 6.614848717780001e1 6.782304651670001e1
6.953999752710001e1 7.130041335920000e1 7.310539433030001e1 7.495606861220001e1
7.685359293659999e1 7.879915331799999e1 8.079396579490000e1 8.283927719010000e1
8.493636588980001e1 8.708654264270001e1 8.929115137920000e1 9.155157005160000e1
9.386921149510000e1 9.624552431110001e1 9.868199377240002e1 1.011801427520000e2
1.037415326740000e2 1.063677644900000e2 1.090604796820000e2 1.118213612830000e2
1.146521349340000e2 1.175545699620000e2 1.205304804820000e2 1.235817265360000e2
1.267102152510000e2 1.299179020350000e2 1.332067917970000e2 1.365789402000000e2
1.400364549450000e2 1.435814970940000e2 1.472162824110000e2 1.509430827570000e2
1.547642275030000e2 1.586821049880000e2 1.626991640150000e2 1.668179153740000e2
1.710409334210000e2 1.753708576790000e2 1.798103944910000e2 1.843623187120000e2
1.890294754440000e2 1.938147818110000e2 1.987212287860000e2 2.037518830560000e2
2.089098889470000e2 2.141984703770000e2 2.196209328850000e2 2.251806656840000e2
2.308811437890000e2 2.367259301840000e2 2.427186780510000e2 2.488631330530001e2
2.551631356740000e2 2.616226236210000e2 2.682456342830001e2 2.750363072580001e2
2.819988869390000e2 2.891377251630001e2 2.964572839370000e2 3.039621382230000e2
3.116569788010000e2
</PP_R>
<PP_RAB>
2.383415554490000e-6 2.443752006510000e-6 2.505615883090000e-6 2.569045851150000e-6
2.634081556510001e-6 2.700763648580001e-6 2.769133805850000e-6 2.839234761900000e-6
2.911110332089999e-6 2.984805441010000e-6 3.060366150490000e-6 3.137839688440000e-6
3.217274478340000e-6 3.298720169520000e-6 3.382227668180000e-6 3.467849169249999e-6
3.555638188930001e-6 3.645649598220000e-6 3.737939657190000e-6 3.832566050120000e-6
3.929587921600000e-6 4.029065913450000e-6 4.131062202650000e-6 4.235640540200000e-6
4.342866290969999e-6 4.452806474550000e-6 4.565529807130001e-6 4.681106744450000e-6
4.799609525879999e-6 4.921112219490000e-6 5.045690768439998e-6 5.173423038380001e-6
5.304388866119999e-6 5.438670109569999e-6 5.576350698889999e-6 5.717516688920000e-6
5.862256313000000e-6 6.010660038099999e-6 6.162820621400000e-6 6.318833168199999e-6
6.478795191430001e-6 6.642806672550000e-6 6.810970124090000e-6 6.983390653670001e-6
7.160176029729999e-6 7.341436748900001e-6 7.527286105020002e-6 7.717840259999999e-6
7.913218316370001e-6 8.113542391780001e-6 8.318937695310002e-6 8.529532605699998e-6
8.745458751629998e-6 8.966851093969998e-6 9.193848010140002e-6 9.426591380600001e-6
9.665226677530001e-6 9.909903055770000e-6 1.016077344600000e-5 1.041799465040000e-5
1.068172744060000e-5 1.095213665820000e-5 1.122939131770000e-5 1.151366471230000e-5
1.180513452220000e-5 1.210398292540000e-5 1.241039671200000e-5 1.272456740050000e-5
1.304669135790000e-5 1.337696992210000e-5 1.371560952790000e-5 1.406282183610000e-5
1.441882386580000e-5 1.478383812980000e-5 1.515809277390000e-5 1.554182171940000e-5
1.593526480940000e-5 1.633866795860000e-5 1.675228330720000e-5 1.717636937820000e-5
1.761119123920000e-5 1.805702066800000e-5 1.851413632250000e-5 1.898282391490000e-5
1.946337639020000e-5 1.995609410930000e-5 2.046128503690000e-5 2.097926493370000e-5
2.151035755400001e-5 2.205489484800000e-5 2.261321716920000e-5 2.318567348730000e-5
2.377262160610000e-5 2.437442838720000e-5 2.499146997960000e-5 2.562413205420000e-5
2.627281004550000e-5 2.693790939830000e-5 2.761984582140000e-5 2.831904554719999e-5
2.903594559840000e-5 2.977099406070000e-5 3.052465036350000e-5 3.129738556640000e-5
3.208968265419999e-5 3.290203683810000e-5 3.373495586620000e-5 3.458896033980000e-5
3.546458403970000e-5 3.636237425900000e-5 3.728289214590000e-5 3.822671305410000e-5
3.919442690230000e-5 4.018663854320001e-5 4.120396814140000e-5 4.224705156100000e-5
4.331654076300000e-5 4.441310421320000e-5 4.553742729920000e-5 4.669021275960000e-5
4.787218112290001e-5 4.908407115780000e-5 5.032664033500001e-5 5.160066530070000e-5
5.290694236190000e-5 5.424628798440001e-5 5.561953930270001e-5 5.702755464370001e-5
5.847121406269999e-5 5.995141989390000e-5 6.146909731410001e-5 6.302519492120001e-5
6.462068532670000e-5 6.625656576410000e-5 6.793385871200000e-5 6.965361253290001e-5
7.141690212920000e-5 7.322482961400000e-5 7.507852500110000e-5 7.697914691030000e-5
7.892788329220000e-5 8.092595217050000e-5 8.297460240320000e-5 8.507511446350001e-5
8.722880123980001e-5 8.943700885640002e-5 9.170111751500000e-5 9.402254235710000e-5
9.640273434880001e-5 9.884318118780000e-5 1.013454082330000e-4 1.039109794570000e-4
1.065414984250000e-4 1.092386092990000e-4 1.120039978590000e-4 1.148393925640000e-4
1.177465656280000e-4 1.207273341280000e-4 1.237835611420000e-4 1.269171569110000e-4
1.301300800350000e-4 1.334243386950000e-4 1.368019919100000e-4 1.402651508230000e-4
1.438159800220000e-4 1.474566988890000e-4 1.511895829940000e-4 1.550169655090000e-4
1.589412386750000e-4 1.629648552880000e-4 1.670903302410000e-4 1.713202420890000e-4
1.756572346660000e-4 1.801040187330000e-4 1.846633736740000e-4 1.893381492350000e-4
1.941312673030000e-4 1.990457237320000e-4 2.040845902180000e-4 2.092510162170000e-4
2.145482309120000e-4 2.199795452360000e-4 2.255483539360000e-4 2.312581377000000e-4
2.371124653280000e-4 2.431149959660000e-4 2.492694813900000e-4 2.555797683550000e-4
2.620498009940000e-4 2.686836232899999e-4 2.754853815960000e-4 2.824593272340000e-4
2.896098191460000e-4 2.969413266230001e-4 3.044584320950000e-4 3.121658339980000e-4
3.200683497100000e-4 3.281709185590000e-4 3.364786049149999e-4 3.449966013520001e-4
3.537302318960000e-4 3.626849553490000e-4 3.718663687060000e-4 3.812802106490000e-4
3.909323651350000e-4 4.008288650750000e-4 4.109758961050000e-4 4.213798004470000e-4
4.320470808820001e-4 4.429844048070001e-4 4.541986084050000e-4 4.656967009190000e-4
4.774858690300000e-4 4.895734813530000e-4 5.019670930389999e-4 5.146744504990000e-4
5.277034962439999e-4 5.410623738530001e-4 5.547594330580000e-4 5.688032349680000e-4
5.832025574160000e-4 5.979664004470000e-4 6.131039919440000e-4 6.286247933940001e-4
6.445385058030001e-4 6.608550757610000e-4 6.775847016530000e-4 6.947378400400001e-4
7.123252121939999e-4 7.303578107930000e-4 7.488469067990000e-4 7.678040564989999e-4
7.872411087290001e-4 8.071702122780000e-4 8.276038234860000e-4 8.485547140240000e-4
8.700359788810001e-4 8.920610445470000e-4 9.146436774049999e-4 9.377979923349999e-4
9.615384615380000e-4 9.858799235810000e-4 1.010837592670000e-3 1.036427068160000e-3
1.062664344300000e-3 1.089565820260000e-3 1.117148310320000e-3 1.145429054430000e-3
1.174425729000000e-3 1.204156457880000e-3 1.234639823740000e-3 1.265894879680000e-3
1.297941161130000e-3 1.330798698060000e-3 1.364488027490000e-3 1.399030206360000e-3
1.434446824660000e-3 1.470760018910000e-3 1.507992486050000e-3 1.546167497580000e-3
1.585308914130000e-3 1.625441200360000e-3 1.666589440260000e-3 1.708779352800000e-3
1.752037308070000e-3 1.796390343680000e-3 1.841866181740000e-3 1.888493246120000e-3
1.936300680260000e-3 1.985318365350000e-3 2.035576939050000e-3 2.087107814600000e-3
2.139943200470000e-3 2.194116120510000e-3 2.249660434540000e-3 2.306610859580000e-3
2.365002991500000e-3 2.424873327270000e-3 2.486259287800000e-3 2.549199241330000e-3
2.613732527360000e-3 2.679899481310000e-3 2.747741459680000e-3 2.817300865900000e-3
2.888621176870000e-3 2.961746970110000e-3 3.036723951620000e-3 3.113598984460000e-3
3.192420118020000e-3 3.273236618069999e-3 3.356098997560000e-3 3.441059048170000e-3
3.528169872709999e-3 3.617485918270000e-3 3.709063010290000e-3 3.802958387420000e-3
3.899230737350000e-3 3.997940233420000e-3 4.099148572279999e-3 4.202919012430001e-3
4.309316413790000e-3 4.418407278180000e-3 4.530259790950001e-3 4.644943863570000e-3
4.762531177300000e-3 4.883095228060000e-3 5.006711372290001e-3 5.133456874110001e-3
5.263410953580000e-3 5.396654836240000e-3 5.533271803849999e-3 5.673347246460000e-3
5.816968715780000e-3 5.964225979909999e-3 6.115211079420000e-3 6.270018384929999e-3
6.428744656039999e-3 6.591489101830001e-3 6.758353442870001e-3 6.929441974830000e-3
7.104861633590001e-3 7.284722062149999e-3 7.469135679140000e-3 7.658217749069999e-3
7.852086454390000e-3 8.050862969350002e-3 8.254671535749999e-3 8.463639540570000e-3
8.677897595609998e-3 8.897579619140000e-3 9.122822919579999e-3 9.353768281310000e-3
9.590560052710000e-3 9.833346236339999e-3 1.008227858150000e-2 1.033751267890000e-2
1.059920805830000e-2 1.086752828780000e-2 1.114264107620000e-2 1.142471837800000e-2
1.171393650070000e-2 1.201047621500000e-2 1.231452286790000e-2 1.262626649850000e-2
1.294590195670000e-2 1.327362902510000e-2 1.360965254360000e-2 1.395418253810000e-2
1.430743435080000e-2 1.466962877580000e-2 1.504099219630000e-2 1.542175672660000e-2
1.581216035680000e-2 1.621244710200000e-2 1.662286715440000e-2 1.704367703990000e-2
1.747513977830000e-2 1.791752504800000e-2 1.837110935410000e-2 1.883617620150000e-2
1.931301627230000e-2 1.980192760690000e-2 2.030321579090000e-2 2.081719414570000e-2
2.134418392450000e-2 2.188451451300000e-2 2.243852363550000e-2 2.300655756570000e-2
2.358897134340000e-2 2.418612899600000e-2 2.479840376650000e-2 2.542617834670000e-2
2.606984511600000e-2 2.672980638720000e-2 2.740647465750000e-2 2.810027286660000e-2
2.881163466100000e-2 2.954100466490000e-2 3.028883875840000e-2 3.105560436210000e-2
3.184178072950000e-2 3.264785924640000e-2 3.347434373810000e-2 3.432175078430000e-2
3.519061004200000e-2 3.608146457650000e-2 3.699487120100000e-2 3.793140082419999e-2
3.889163880780000e-2 3.987618533160000e-2 4.088565576930000e-2 4.192068107280001e-2
4.298190816660000e-2 4.407000035220000e-2 4.518563772270000e-2 4.632951758760000e-2
4.750235490920000e-2 4.870488274890000e-2 4.993785272580000e-2 5.120203548630000e-2
5.249822118570000e-2 5.382721998240000e-2 5.518986254370000e-2 5.658700056570000e-2
5.801950730520000e-2 5.948827812540001e-2 6.099423105590001e-2 6.253830736639999e-2
6.412147215470000e-2 6.574471495049999e-2 6.740905033340000e-2 6.911551856700000e-2
7.086518624960001e-2 7.265914698050000e-2 7.449852204350000e-2 7.638446110789999e-2
7.831814294710000e-2 8.030077617500000e-2 8.233360000209998e-2 8.441788500940001e-2
8.655493394280001e-2 8.874608252759998e-2 9.099270030280000e-2 9.329619147779999e-2
9.565799580960000e-2 9.807958950260000e-2 1.005624861320000e-1 1.031082375890000e-1
1.057184350500000e-1 1.083947099750000e-1 1.111387351220000e-1 1.139522255970000e-1
1.168369399220000e-1 1.197946811380000e-1 1.228272979290000e-1 1.259366857800000e-1
1.291247881590000e-1 1.323935977340000e-1 1.357451576170000e-1 1.391815626420000e-1
1.427049606760000e-1 1.463175539540000e-1 1.500216004680000e-1 1.538194153650000e-1
1.577133724040000e-1 1.617059054340000e-1 1.657995099200000e-1 1.699967444970000e-1
1.743002325720000e-1 1.787126639670000e-1 1.832367965950000e-1 1.878754581850000e-1
1.926315480530000e-1 1.975080389080000e-1 2.025079787180000e-1 2.076344926060000e-1
2.128907848120000e-1 2.182801406880000e-1 2.238059287570000e-1 2.294716028180000e-1
2.352807041000000e-1 2.412368634820000e-1 2.473438037560000e-1 2.536053419590000e-1
2.600253917560000e-1 2.666079658880000e-1 2.733571786770000e-1 2.802772486010000e-1
2.873725009300000e-1 2.946473704260000e-1 3.021064041210000e-1 3.097542641520000e-1
3.175957306820000e-1 3.256357048830000e-1 3.338792119990000e-1 3.423314044910000e-1
3.509975652550000e-1 3.598831109230000e-1 3.689935952510000e-1 3.783347125880000e-1
3.879123014350000e-1 3.977323480990000e-1 4.078009904280000e-1 4.181245216500001e-1
4.287093943100000e-1 4.395622242970000e-1 4.506897949830000e-1 4.620990614620000e-1
4.737971548970000e-1 4.857913869780000e-1 4.980892544890000e-1 5.106984439980000e-1
5.236268366600000e-1 5.368825131390000e-1 5.504737586670000e-1 5.644090682130000e-1
5.786971518000001e-1 5.933469399450000e-1 6.083675892430001e-1 6.237684880870001e-1
6.395592625430000e-1 6.557497823560000e-1 6.723501671310000e-1 6.893707926459999e-1
7.068222973479999e-1 7.247155889950000e-1 7.430618514760000e-1 7.618725518030000e-1
7.811594472760000e-1 8.009345928329999e-1 8.212103485829999e-1 8.419993875330000e-1
8.633147035099999e-1 8.851696192800000e-1 9.075777948770000e-1 9.305532361390000e-1
9.541103034660001e-1 9.782637207920001e-1 1.003028584790000e0 1.028420374300000e0
1.054454960030000e0 1.081148614430000e0 1.108518021910000e0 1.136580289240000e0
1.165352956240000e0 1.194854006780000e0 1.225101879970000e0 1.256115481720000e0
1.287914196530000e0 1.320517899640000e0 1.353946969430000e0 1.388222300140000e0
1.423365314990000e0 1.459397979480000e0 1.496342815230000e0 1.534222913940000e0
1.573061951920000e0 1.612884204820000e0 1.653714562860000e0 1.695578546330000e0
1.738502321590000e0 1.782512717400000e0 1.827637241670000e0 1.873904098720000e0
1.921342206830000e0 1.969981216370000e0 2.019851528290000e0 2.070984313170000e0
2.123411530660000e0 2.177165949480000e0 2.232281167900000e0 2.288791634700000e0
2.346732670790000e0 2.406140491190000e0 2.467052227730000e0 2.529505952210000e0
2.593540700260000e0 2.659196495670000e0 2.726514375460000e0 2.795536415480000e0
2.866305756770000e0 2.938866632460000e0 3.013264395470000e0 3.089545546810000e0
3.167757764700000e0 3.247949934300000e0 3.330172178350000e0 3.414475888410000e0
3.500913757050000e0 3.589539810760000e0 3.680409443690000e0 3.773579452340000e0
3.869108070980000e0 3.967055008120000e0 4.067481483780000e0 4.170450267770000e0
4.276025718940000e0 4.384273825380000e0 4.495262245680000e0 4.609060351220000e0
4.725739269520000e0 4.845371928690000e0 4.968033103050000e0 5.093799459830000e0
5.222749607080000e0 5.354964142850000e0 5.490525705530000e0 5.629519025510000e0
5.772030978140000e0 5.918150638020000e0 6.067969334700000e0 6.221580709750000e0
6.379080775270000e0 6.540567973930000e0 6.706143240490000e0 6.875910064870000e0
7.049974556880000e0 7.228445512480000e0 7.411434481840000e0 7.599055839000000e0
7.791426853440000e0
</PP_RAB>
</PP_MESH>
<PP_LOCAL columns="4">
-4.927063687480000e1 -4.927063687480000e1 -4.927063687420000e1 -4.927063687350000e1
-4.927063687270000e1 -4.927063687100000e1 -4.927063686890000e1 -4.927063686670000e1
-4.927063686370000e1 -4.927063686060000e1 -4.927063685660000e1 -4.927063685220000e1
-4.927063684740000e1 -4.927063684150000e1 -4.927063683540000e1 -4.927063682810001e1
-4.927063682030000e1 -4.927063681160000e1 -4.927063680200000e1 -4.927063679150001e1
-4.927063678000000e1 -4.927063676730000e1 -4.927063675350000e1 -4.927063673860000e1
-4.927063672230000e1 -4.927063670470001e1 -4.927063668570000e1 -4.927063666500000e1
-4.927063664290000e1 -4.927063661900000e1 -4.927063659330000e1 -4.927063656530001e1
-4.927063653590000e1 -4.927063650410000e1 -4.927063646970001e1 -4.927063643310000e1
-4.927063639400000e1 -4.927063635190001e1 -4.927063630710000e1 -4.927063625920001e1
-4.927063620820000e1 -4.927063615370001e1 -4.927063609580000e1 -4.927063603400001e1
-4.927063596800000e1 -4.927063589780000e1 -4.927063582310001e1 -4.927063574380000e1
-4.927063565960001e1 -4.927063556990000e1 -4.927063547470000e1 -4.927063537330000e1
-4.927063526630000e1 -4.927063515240000e1 -4.927063503130000e1 -4.927063490330000e1
-4.927063476750000e1 -4.927063462330000e1 -4.927063447090000e1 -4.927063430940001e1
-4.927063413810000e1 -4.927063395670000e1 -4.927063376470000e1 -4.927063356170001e1
-4.927063334690001e1 -4.927063311940000e1 -4.927063287880000e1 -4.927063262450001e1
-4.927063235580000e1 -4.927063207150001e1 -4.927063177090001e1 -4.927063145340000e1
-4.927063111770000e1 -4.927063076320001e1 -4.927063038890001e1 -4.927062999330000e1
-4.927062957560000e1 -4.927062913470000e1 -4.927062866890001e1 -4.927062817740000e1
-4.927062765870001e1 -4.927062711110000e1 -4.927062653330001e1 -4.927062592350000e1
-4.927062528030000e1 -4.927062460170000e1 -4.927062388580000e1 -4.927062313080000e1
-4.927062233460000e1 -4.927062149480000e1 -4.927062060950000e1 -4.927061967590000e1
-4.927061869170000e1 -4.927061765400000e1 -4.927061656030000e1 -4.927061540740000e1
-4.927061419240000e1 -4.927061291180000e1 -4.927061156200001e1 -4.927061014020000e1
-4.927060864160000e1 -4.927060706310001e1 -4.927060539980000e1 -4.927060364730000e1
-4.927060180140000e1 -4.927059985680000e1 -4.927059780880001e1 -4.927059565160000e1
-4.927059337940000e1 -4.927059098650000e1 -4.927058846650000e1 -4.927058581290001e1
-4.927058301860001e1 -4.927058007590000e1 -4.927057697780000e1 -4.927057371580000e1
-4.927057028150000e1 -4.927056666550000e1 -4.927056285910001e1 -4.927055885170001e1
-4.927055463360000e1 -4.927055019320001e1 -4.927054551920000e1 -4.927054059920000e1
-4.927053542090000e1 -4.927052997060001e1 -4.927052423470000e1 -4.927051819730000e1
-4.927051184390001e1 -4.927050515720000e1 -4.927049812060001e1 -4.927049071570000e1
-4.927048292400000e1 -4.927047472460000e1 -4.927046609680001e1 -4.927045701810000e1
-4.927044746600000e1 -4.927043741490000e1 -4.927042684020001e1 -4.927041571350000e1
-4.927040400750000e1 -4.927039169130000e1 -4.927037873450001e1 -4.927036510260001e1
-4.927035076230000e1 -4.927033567490000e1 -4.927031980450000e1 -4.927030310810000e1
-4.927028554540001e1 -4.927026706940000e1 -4.927024763530000e1 -4.927022719120000e1
-4.927020568740001e1 -4.927018306710000e1 -4.927015927500000e1 -4.927013424810000e1
-4.927010792550000e1 -4.927008023780001e1 -4.927005111720000e1 -4.927002048690000e1
-4.926998827260000e1 -4.926995438890000e1 -4.926991875390001e1 -4.926988127310000e1
-4.926984185570000e1 -4.926980039780000e1 -4.926975679860000e1 -4.926971094330000e1