
     Program PWSCF v.7.3.1 starts on 15Nov2025 at 10:45:26 

     This program is part of the open-source Quantum ESPRESSO suite
     for quantum simulation of materials; please cite
         "P. Giannozzi et al., J. Phys.:Condens. Matter 21 395502 (2009);
         "P. Giannozzi et al., J. Phys.:Condens. Matter 29 465901 (2017);
         "P. Giannozzi et al., J. Chem. Phys. 152 154105 (2020);
          URL http://www.quantum-espresso.org", 
     in publications or presentations arising from this work. More details at
     http://www.quantum-espresso.org/quote

     Parallel version (MPI & OpenMP), running on      32 processor cores
     Number of MPI processes:                 4
     Threads/MPI process:                     8

     MPI processes distributed on     1 nodes
     501290 MiB available memory on the printing compute node when the environment starts
 
     Waiting for input...
     Reading input from standard input

     Current dimensions of program PWSCF are:
     Max number of different atomic species (ntypx) = 10
     Max number of k-points (npk) =  40000
     Max angular momentum in pseudopotentials (lmaxx) =  4
     file O.pbe-n-kjpaw_psl.1.0.0.UPF: wavefunction(s)  2S 2P renormalized
     file H.pbe-kjpaw_psl.1.0.0.UPF: wavefunction(s)  1S renormalized

     gamma-point specific algorithms are used
 
     K-points division:     npool     =       2
     R & G space division:  proc/nbgrp/npool/nimage =       2
     Subspace diagonalization in iterative solution of the eigenvalue problem:
     a serial algorithm will be used

 
     Parallelization info
     --------------------
     sticks:   dense  smooth     PW     G-vecs:    dense   smooth      PW
     Min       23082   11538   2885              3794045  1341403  167663
     Max       23083   11541   2886              3794046  1341406  167666
     Sum       46165   23079   5771              7588091  2682809  335329
 
     Using Slab Decomposition
 


     bravais-lattice index     =            0
     lattice parameter (alat)  =      37.7945  a.u.
     unit-cell volume          =   56166.3880 (a.u.)^3
     number of atoms/cell      =            1
     number of atomic types    =            4
     number of electrons       =         6.00
     number of Kohn-Sham states=            7
     kinetic-energy cutoff     =      50.0000  Ry
     charge density cutoff     =     400.0000  Ry
     scf convergence threshold =      1.0E-06
     mixing beta               =       0.2000
     number of iterations used =            8  local-TF  mixing
     Exchange-correlation= SLA  PW   PBX  PBC
                           (   1   4   3   4   0   0   0)

     GPU acceleration is ACTIVE.  4 visible GPUs per MPI rank
     GPU-aware MPI enabled


     celldm(1)=  37.794522  celldm(2)=   0.000000  celldm(3)=   0.000000
     celldm(4)=   0.000000  celldm(5)=   0.000000  celldm(6)=   0.000000

     crystal axes: (cart. coord. in units of alat)
               a(1) = (   1.000000   0.000000   0.000000 )  
               a(2) = (   0.000000   1.015000   0.000000 )  
               a(3) = (   0.000000   0.000000   1.025000 )  

     reciprocal axes: (cart. coord. in units 2 pi/alat)
               b(1) = (  1.000000  0.000000  0.000000 )  
               b(2) = (  0.000000  0.985222  0.000000 )  
               b(3) = (  0.000000  0.000000  0.975610 )  


     PseudoPot. # 1 for Mo read from file:
     /leonardo/home/userexternal/apacini0/PSEUDO/Mo.pbe-spn-rrkjus_psl.0.2.UPF
     MD5 check sum: fc6921ed78563293cf4f0ffad66b730e
     Pseudo is Ultrasoft + core correction, Zval = 14.0
     Generated using "atomic" code by A. Dal Corso  v.5.0.2 svn rev. 9415
     Using radial grid of 1229 points,  6 beta functions with: 
                l(1) =   0
                l(2) =   0
                l(3) =   1
                l(4) =   1
                l(5) =   2
                l(6) =   2
     Q(r) pseudized with 0 coefficients 


     PseudoPot. # 2 for S  read from file:
     /leonardo/home/userexternal/apacini0/PSEUDO/S.pbe-n-rrkjus_psl.0.1.UPF
     MD5 check sum: bcce8fa2324dad47c8296339772e3939
     Pseudo is Ultrasoft + core correction, Zval =  6.0
     Generated using "atomic" code by A. Dal Corso  v.5.0.2 svn rev. 9415
     Using radial grid of 1151 points,  4 beta functions with: 
                l(1) =   0
                l(2) =   0
                l(3) =   1
                l(4) =   1
     Q(r) pseudized with 0 coefficients 


     PseudoPot. # 3 for O  read from file:
     /leonardo/home/userexternal/apacini0/PSEUDO/O.pbe-n-kjpaw_psl.1.0.0.UPF
     MD5 check sum: e99d9cef9b487d1ca56f5b95ecd0fd7a
     Pseudo is Projector augmented-wave + core cor, Zval =  6.0
     Generated using &quot;atomic&quot; code by A. Dal Corso  v.6.3
     Shape of augmentation charge: PSQ
     Using radial grid of 1095 points,  4 beta functions with: 
                l(1) =   0
                l(2) =   0
                l(3) =   1
                l(4) =   1
     Q(r) pseudized with 0 coefficients 


     PseudoPot. # 4 for H  read from file:
     /leonardo/home/userexternal/apacini0/PSEUDO/H.pbe-kjpaw_psl.1.0.0.UPF
     MD5 check sum: d81a744832360e4a8af0b0b5b123bc2a
     Pseudo is Projector augmented-wave, Zval =  1.0
     Generated using &quot;atomic&quot; code by A. Dal Corso  v.6.3MaX
     Shape of augmentation charge: PSQ
     Using radial grid of  929 points,  2 beta functions with: 
                l(1) =   0
                l(2) =   0
     Q(r) pseudized with 0 coefficients 


     atomic species   valence    mass     pseudopotential
     Mo               14.00    95.95000     Mo( 1.00)
     S                 6.00    32.06500     S ( 1.00)
     O                 6.00    15.99900     O ( 1.00)
     H                 1.00     1.00800     H ( 1.00)

     Starting magnetic structure 
     atomic species   magnetization
     Mo              0.200
     S               0.200
     O               0.200
     H               0.200

     No symmetry found



   Cartesian axes

     site n.     atom                  positions (alat units)
         1        O      tau(   1) = (   0.0000000   0.0000000   0.0000000  )

     --------------------------------------------
     DFT-D3 Dispersion Correction (3-body terms):
     --------------------------------------------
       Reference C6 values for interpolation: 

         atom   Coordination number   C6
         H          0.912             6.05
         H          0.000            15.18
         O          0.000            31.01
         O          0.993            25.63
         O          1.989            20.74
         S          0.000           268.01
         S          0.995           261.99
         S          1.990           251.62
         Mo         0.000          1691.79
         Mo         1.942          1004.01
         Mo        11.056           674.22

       Values used:

         atom   Coordination number  R0_AB[au]  C6      C8
         O          0.000            2.345     30.90    623.64

         Molecular C6 ( Ry / a.u.^6 ) =        30.90


     number of k points=     1  Gaussian smearing, width (Ry)=  0.0200
                       cart. coord. in units 2pi/alat
        k(    1) = (   0.0000000   0.0000000   0.0000000), wk =   1.0000000

     Dense  grid:  3794046 G-vectors     FFT dimensions: ( 243, 250, 250)

     Smooth grid:  1341405 G-vectors     FFT dimensions: ( 180, 180, 180)

     Estimated max dynamical RAM per process >       5.00 GB

     Estimated total dynamical RAM >      18.19 GB
     Generating pointlists ...
     new r_m :   0.4125 (alat units) 15.5902 (a.u.) for type    1
     new r_m :   0.4125 (alat units) 15.5902 (a.u.) for type    2
     new r_m :   0.4125 (alat units) 15.5902 (a.u.) for type    3
     new r_m :   0.4125 (alat units) 15.5902 (a.u.) for type    4

     Initial potential from superposition of free atoms

     starting charge       6.0000, renormalised to       6.0000

     negative rho (up, down):  1.223E-03 8.151E-04
     Starting wfcs are    4 randomized atomic wfcs +    3 random wfcs
     Checking if some PAW data can be deallocated... 

     total cpu time spent up to now is        5.2 secs

     per-process dynamical memory:  1363.6 Mb

     Self-consistent Calculation

     iteration #  1     ecut=    50.00 Ry     beta= 0.20
     Davidson diagonalization with overlap
     ethr =  1.00E-02,  avg # of iterations =  4.0

     Threshold (ethr) on eigenvalues was too large:
     Diagonalizing with lowered threshold

     Davidson diagonalization with overlap
     ethr =  2.23E-04,  avg # of iterations =  6.0

     negative rho (up, down):  1.180E-03 6.473E-04

     total cpu time spent up to now is        7.7 secs

     total energy              =     -41.26874080 Ry
     estimated scf accuracy    <       0.01605275 Ry

     total magnetization       =     2.00 Bohr mag/cell
     absolute magnetization    =     2.00 Bohr mag/cell

     iteration #  2     ecut=    50.00 Ry     beta= 0.20
     Davidson diagonalization with overlap
     ethr =  2.68E-04,  avg # of iterations =  2.0

     negative rho (up, down):  1.728E-03 1.840E-03

     total cpu time spent up to now is        9.3 secs

     total energy              =     -41.28116245 Ry
     estimated scf accuracy    <       0.01058501 Ry

     total magnetization       =     2.00 Bohr mag/cell
     absolute magnetization    =     2.00 Bohr mag/cell

     iteration #  3     ecut=    50.00 Ry     beta= 0.20
     Davidson diagonalization with overlap
     ethr =  1.76E-04,  avg # of iterations =  2.0

     negative rho (up, down):  1.481E-03 1.401E-03

     total cpu time spent up to now is       11.0 secs

     total energy              =     -41.28200313 Ry
     estimated scf accuracy    <       0.00011959 Ry

     total magnetization       =     2.00 Bohr mag/cell
     absolute magnetization    =     2.00 Bohr mag/cell

     iteration #  4     ecut=    50.00 Ry     beta= 0.20
     Davidson diagonalization with overlap
     c_bands:  3 eigenvalues not converged
     ethr =  1.99E-06,  avg # of iterations = 20.0

     negative rho (up, down):  1.233E-03 9.648E-04

     total cpu time spent up to now is       12.8 secs

     total energy              =     -41.28201209 Ry
     estimated scf accuracy    <       0.00013276 Ry

     total magnetization       =     2.00 Bohr mag/cell
     absolute magnetization    =     2.00 Bohr mag/cell

     iteration #  5     ecut=    50.00 Ry     beta= 0.20
     Davidson diagonalization with overlap
     c_bands:  3 eigenvalues not converged
     ethr =  1.99E-06,  avg # of iterations = 20.0

     negative rho (up, down):  1.075E-03 7.041E-04

     total cpu time spent up to now is       14.6 secs

     total energy              =     -41.28194386 Ry
     estimated scf accuracy    <       0.00014755 Ry

     total magnetization       =     2.00 Bohr mag/cell
     absolute magnetization    =     2.00 Bohr mag/cell

     iteration #  6     ecut=    50.00 Ry     beta= 0.20
     Davidson diagonalization with overlap
     ethr =  1.99E-06,  avg # of iterations = 11.0

     negative rho (up, down):  8.337E-04 2.810E-04

     total cpu time spent up to now is       16.4 secs

     total energy              =     -41.28203765 Ry
     estimated scf accuracy    <       0.00009259 Ry

     total magnetization       =     2.00 Bohr mag/cell
     absolute magnetization    =     2.00 Bohr mag/cell

     iteration #  7     ecut=    50.00 Ry     beta= 0.20
     Davidson diagonalization with overlap
     ethr =  1.54E-06,  avg # of iterations =  4.0

     negative rho (up, down):  8.495E-04 2.021E-04

     total cpu time spent up to now is       18.2 secs

     total energy              =     -41.28210947 Ry
     estimated scf accuracy    <       0.00008898 Ry

     total magnetization       =     2.00 Bohr mag/cell
     absolute magnetization    =     2.00 Bohr mag/cell

     iteration #  8     ecut=    50.00 Ry     beta= 0.20
     Davidson diagonalization with overlap
     ethr =  1.48E-06,  avg # of iterations =  5.0

     negative rho (up, down):  7.930E-04 1.284E-04

     total cpu time spent up to now is       20.0 secs

     total energy              =     -41.28211484 Ry
     estimated scf accuracy    <       0.00003334 Ry

     total magnetization       =     2.00 Bohr mag/cell
     absolute magnetization    =     2.00 Bohr mag/cell

     iteration #  9     ecut=    50.00 Ry     beta= 0.20
     Davidson diagonalization with overlap
     ethr =  5.56E-07,  avg # of iterations =  1.5

     negative rho (up, down):  7.627E-04 9.428E-05

     total cpu time spent up to now is       21.8 secs

     total energy              =     -41.28208997 Ry
     estimated scf accuracy    <       0.00003389 Ry

     total magnetization       =     2.00 Bohr mag/cell
     absolute magnetization    =     2.00 Bohr mag/cell

     iteration # 10     ecut=    50.00 Ry     beta= 0.20
     Davidson diagonalization with overlap
     ethr =  5.56E-07,  avg # of iterations =  2.0

     negative rho (up, down):  1.184E-03 3.066E-04

     total cpu time spent up to now is       23.7 secs

     total energy              =     -41.28210391 Ry
     estimated scf accuracy    <       0.00006338 Ry

     total magnetization       =     2.00 Bohr mag/cell
     absolute magnetization    =     2.00 Bohr mag/cell

     iteration # 11     ecut=    50.00 Ry     beta= 0.20
     Davidson diagonalization with overlap
     ethr =  5.56E-07,  avg # of iterations =  9.5

     negative rho (up, down):  1.686E-03 7.871E-04

     total cpu time spent up to now is       25.5 secs

     total energy              =     -41.28212870 Ry
     estimated scf accuracy    <       0.00001566 Ry

     total magnetization       =     2.00 Bohr mag/cell
     absolute magnetization    =     2.00 Bohr mag/cell

     iteration # 12     ecut=    50.00 Ry     beta= 0.20
     Davidson diagonalization with overlap
     ethr =  2.61E-07,  avg # of iterations =  9.0

     negative rho (up, down):  1.309E-03 3.406E-04

     total cpu time spent up to now is       27.3 secs

     total energy              =     -41.28213180 Ry
     estimated scf accuracy    <       0.00001320 Ry

     total magnetization       =     2.00 Bohr mag/cell
     absolute magnetization    =     2.00 Bohr mag/cell

     iteration # 13     ecut=    50.00 Ry     beta= 0.20
     Davidson diagonalization with overlap
     ethr =  2.20E-07,  avg # of iterations =  2.5

     negative rho (up, down):  1.460E-03 4.318E-04

     total cpu time spent up to now is       29.2 secs

     total energy              =     -41.28213880 Ry
     estimated scf accuracy    <       0.00000427 Ry

     total magnetization       =     2.00 Bohr mag/cell
     absolute magnetization    =     2.00 Bohr mag/cell

     iteration # 14     ecut=    50.00 Ry     beta= 0.20
     Davidson diagonalization with overlap
     ethr =  7.12E-08,  avg # of iterations =  2.0

     negative rho (up, down):  1.436E-03 3.971E-04

     total cpu time spent up to now is       31.0 secs

     total energy              =     -41.28214038 Ry
     estimated scf accuracy    <       0.00000279 Ry

     total magnetization       =     2.00 Bohr mag/cell
     absolute magnetization    =     2.00 Bohr mag/cell

     iteration # 15     ecut=    50.00 Ry     beta= 0.20
     Davidson diagonalization with overlap
     ethr =  4.64E-08,  avg # of iterations =  1.5

     negative rho (up, down):  1.429E-03 3.911E-04

     total cpu time spent up to now is       32.8 secs

     total energy              =     -41.28213843 Ry
     estimated scf accuracy    <       0.00000350 Ry

     total magnetization       =     2.00 Bohr mag/cell
     absolute magnetization    =     2.00 Bohr mag/cell

     iteration # 16     ecut=    50.00 Ry     beta= 0.20
     Davidson diagonalization with overlap
     ethr =  4.64E-08,  avg # of iterations =  1.5

     negative rho (up, down):  1.445E-03 4.036E-04

     total cpu time spent up to now is       34.6 secs

     total energy              =     -41.28213878 Ry
     estimated scf accuracy    <       0.00000228 Ry

     total magnetization       =     2.00 Bohr mag/cell
     absolute magnetization    =     2.00 Bohr mag/cell

     iteration # 17     ecut=    50.00 Ry     beta= 0.20
     Davidson diagonalization with overlap
     ethr =  3.80E-08,  avg # of iterations =  1.0

     negative rho (up, down):  1.489E-03 4.396E-04

     total cpu time spent up to now is       36.4 secs

     total energy              =     -41.28213841 Ry
     estimated scf accuracy    <       0.00000210 Ry

     total magnetization       =     2.00 Bohr mag/cell
     absolute magnetization    =     2.00 Bohr mag/cell

     iteration # 18     ecut=    50.00 Ry     beta= 0.20
     Davidson diagonalization with overlap
     ethr =  3.50E-08,  avg # of iterations =  1.0

     negative rho (up, down):  1.492E-03 4.509E-04

     total cpu time spent up to now is       38.3 secs

     total energy              =     -41.28213798 Ry
     estimated scf accuracy    <       0.00000177 Ry

     total magnetization       =     2.00 Bohr mag/cell
     absolute magnetization    =     2.00 Bohr mag/cell

     iteration # 19     ecut=    50.00 Ry     beta= 0.20
     Davidson diagonalization with overlap
     ethr =  2.95E-08,  avg # of iterations =  1.0

     negative rho (up, down):  1.447E-03 3.926E-04

     total cpu time spent up to now is       40.1 secs

     total energy              =     -41.28213850 Ry
     estimated scf accuracy    <       0.00000219 Ry

     total magnetization       =     2.00 Bohr mag/cell
     absolute magnetization    =     2.00 Bohr mag/cell

     iteration # 20     ecut=    50.00 Ry     beta= 0.20
     Davidson diagonalization with overlap
     ethr =  2.95E-08,  avg # of iterations =  1.0

     negative rho (up, down):  1.471E-03 4.147E-04

     total cpu time spent up to now is       41.9 secs

     total energy              =     -41.28213835 Ry
     estimated scf accuracy    <       0.00000187 Ry

     total magnetization       =     2.00 Bohr mag/cell
     absolute magnetization    =     2.00 Bohr mag/cell

     iteration # 21     ecut=    50.00 Ry     beta= 0.20
     Davidson diagonalization with overlap
     ethr =  2.95E-08,  avg # of iterations =  1.0

     negative rho (up, down):  1.432E-03 3.809E-04

     total cpu time spent up to now is       43.7 secs

     total energy              =     -41.28213881 Ry
     estimated scf accuracy    <       0.00000187 Ry

     total magnetization       =     2.00 Bohr mag/cell
     absolute magnetization    =     2.00 Bohr mag/cell

     iteration # 22     ecut=    50.00 Ry     beta= 0.20
     Davidson diagonalization with overlap
     ethr =  2.95E-08,  avg # of iterations =  1.0

     negative rho (up, down):  1.532E-03 4.535E-04

     total cpu time spent up to now is       45.5 secs

     total energy              =     -41.28214036 Ry
     estimated scf accuracy    <       0.00000233 Ry

     total magnetization       =     2.00 Bohr mag/cell
     absolute magnetization    =     2.00 Bohr mag/cell

     iteration # 23     ecut=    50.00 Ry     beta= 0.20
     Davidson diagonalization with overlap
     ethr =  2.95E-08,  avg # of iterations =  1.0

     negative rho (up, down):  1.450E-03 3.822E-04

     total cpu time spent up to now is       47.3 secs

     total energy              =     -41.28213941 Ry
     estimated scf accuracy    <       0.00000210 Ry

     total magnetization       =     2.00 Bohr mag/cell
     absolute magnetization    =     2.00 Bohr mag/cell

     iteration # 24     ecut=    50.00 Ry     beta= 0.20
     Davidson diagonalization with overlap
     ethr =  2.95E-08,  avg # of iterations =  1.0

     negative rho (up, down):  1.526E-03 4.441E-04

     total cpu time spent up to now is       49.1 secs

     total energy              =     -41.28214046 Ry
     estimated scf accuracy    <       0.00000177 Ry

     total magnetization       =     2.00 Bohr mag/cell
     absolute magnetization    =     2.00 Bohr mag/cell

     iteration # 25     ecut=    50.00 Ry     beta= 0.20
     Davidson diagonalization with overlap
     ethr =  2.95E-08,  avg # of iterations =  1.0

     negative rho (up, down):  1.497E-03 4.197E-04

     total cpu time spent up to now is       50.9 secs

     total energy              =     -41.28213986 Ry
     estimated scf accuracy    <       0.00000198 Ry

     total magnetization       =     2.00 Bohr mag/cell
     absolute magnetization    =     2.00 Bohr mag/cell

     iteration # 26     ecut=    50.00 Ry     beta= 0.20
     Davidson diagonalization with overlap
     ethr =  2.95E-08,  avg # of iterations =  1.0

     negative rho (up, down):  1.525E-03 4.387E-04

     total cpu time spent up to now is       52.8 secs

     total energy              =     -41.28213865 Ry
     estimated scf accuracy    <       0.00000216 Ry

     total magnetization       =     2.00 Bohr mag/cell
     absolute magnetization    =     2.00 Bohr mag/cell

     iteration # 27     ecut=    50.00 Ry     beta= 0.20
     Davidson diagonalization with overlap
     ethr =  2.95E-08,  avg # of iterations =  1.5

     negative rho (up, down):  1.527E-03 4.381E-04

     total cpu time spent up to now is       54.6 secs

     total energy              =     -41.28213877 Ry
     estimated scf accuracy    <       0.00000136 Ry

     total magnetization       =     2.00 Bohr mag/cell
     absolute magnetization    =     2.00 Bohr mag/cell

     iteration # 28     ecut=    50.00 Ry     beta= 0.20
     Davidson diagonalization with overlap
     ethr =  2.27E-08,  avg # of iterations =  1.5

     negative rho (up, down):  1.552E-03 4.518E-04

     total cpu time spent up to now is       56.4 secs

     total energy              =     -41.28214113 Ry
     estimated scf accuracy    <       0.00000112 Ry

     total magnetization       =     2.00 Bohr mag/cell
     absolute magnetization    =     2.00 Bohr mag/cell

     iteration # 29     ecut=    50.00 Ry     beta= 0.20
     Davidson diagonalization with overlap
     ethr =  1.87E-08,  avg # of iterations =  1.5

     negative rho (up, down):  1.823E-03 6.837E-04
 
     Magnetic moment per site  (integrated on atomic sphere of radius R)
     atom   1 (R=0.413)  charge=  6.0000  magn=  2.0000

     total cpu time spent up to now is       57.8 secs

     End of self-consistent calculation

 ------ SPIN UP ------------


          k = 0.0000 0.0000 0.0000 (167665 PWs)   bands (ev):

   -25.2169 -10.2189 -10.2177 -10.2173  -0.2995  -0.0679   0.1763

 ------ SPIN DOWN ----------


          k = 0.0000 0.0000 0.0000 (167665 PWs)   bands (ev):

   -21.9707  -7.1866  -7.1864  -7.1856  -0.2472  -0.0053   0.1724

     the Fermi energy is    -7.2691 ev

!    total energy              =     -41.28214489 Ry
     total all-electron energy =      -150.129035 Ry
     estimated scf accuracy    <       0.00000070 Ry
     smearing contrib. (-TS)   =      -0.01542619 Ry
     internal energy E=F+TS    =     -41.26671870 Ry

     The total energy is F=E-TS. E is the sum of the following terms:
     one-electron contribution =     -46.69772562 Ry
     hartree contribution      =      24.75584964 Ry
     xc contribution           =      -7.05505033 Ry
     ewald contribution        =      -2.66673830 Ry
     DFT-D3 Dispersion         =      -0.00000004 Ry
     one-center paw contrib.   =      -9.60305405 Ry

     total magnetization       =     2.00 Bohr mag/cell
     absolute magnetization    =     2.00 Bohr mag/cell

     convergence has been achieved in  29 iterations

     negative rho (up, down):  1.823E-03 6.837E-04

     Forces acting on atoms (cartesian axes, Ry/au):

     atom    1 type  3   force =     0.00000000    0.00000000    0.00000000

     Total force =     0.000000     Total SCF correction =     0.000337
     Message from routine punch:
     Nothing written, as per user request (disk_io='none')
 
     init_run     :      3.89s CPU      4.70s WALL (       1 calls)
     electrons    :     68.98s CPU     52.55s WALL (       1 calls)
     forces       :      0.42s CPU      0.35s WALL (       1 calls)
     force_dftd3  :      0.07s CPU      0.07s WALL (       1 calls)

     Called by init_run:
     wfcinit      :      0.04s CPU      0.38s WALL (       1 calls)
     potinit      :      2.13s CPU      2.15s WALL (       1 calls)
     hinit0       :      0.66s CPU      0.91s WALL (       1 calls)

     Called by electrons:
     c_bands      :      0.95s CPU      1.01s WALL (      30 calls)
     sum_band     :      8.25s CPU      8.33s WALL (      30 calls)
     v_of_rho     :      5.32s CPU      4.91s WALL (      30 calls)
     newd         :      7.67s CPU      7.75s WALL (      30 calls)
                                        7.75s GPU  (      30 calls)
     PAW_pot      :      3.95s CPU      1.99s WALL (      30 calls)
     mix_rho      :     18.40s CPU     13.25s WALL (      30 calls)
     energy_dftd3 :      0.00s CPU      0.00s WALL (       1 calls)

     Called by c_bands:
     init_us_2    :      0.02s CPU      0.02s WALL (      61 calls)
     regterg      :      0.80s CPU      0.86s WALL (      30 calls)

     Called by *egterg:
     rdiaghg      :      0.04s CPU      0.11s WALL (     154 calls)
                                        0.10s GPU  (     154 calls)
     h_psi        :      0.58s CPU      0.86s WALL (     156 calls)
                                        0.86s GPU  (     156 calls)
     s_psi        :      0.01s CPU      0.01s WALL (     156 calls)
     g_psi        :      0.00s CPU      0.00s WALL (     125 calls)
                                        0.00s GPU  (     125 calls)

     Called by h_psi:
     h_psi:calbec :      0.03s CPU      0.04s WALL (     156 calls)
                                        0.04s GPU  (     156 calls)
     vloc_psi     :      0.39s CPU      0.66s WALL (     156 calls)
                                        0.66s GPU  (     156 calls)
     add_vuspsi   :      0.01s CPU      0.01s WALL (     156 calls)
                                        0.01s GPU  (     156 calls)

     General routines
     calbec       :      0.04s CPU      0.04s WALL (     190 calls)
     fft          :     14.28s CPU      7.61s WALL (     554 calls)
                                        1.10s GPU  (     494 calls)
     ffts         :      8.18s CPU      5.45s WALL (    3534 calls)
                                        2.66s GPU  (    3474 calls)
     fftw         :      0.23s CPU      0.61s WALL (     432 calls)
                                        0.60s GPU  (     432 calls)
     interpolate  :     20.72s CPU     11.35s WALL (      60 calls)
 
     Parallel routines
 
     PWSCF        :   1m13.80s CPU     58.21s WALL

 
   This run was terminated on:  10:46:25  15Nov2025            

=------------------------------------------------------------------------------=
   JOB DONE.
=------------------------------------------------------------------------------=
