
     Program PWSCF v.7.3.1 starts on 15Nov2025 at 10:48:10 

     This program is part of the open-source Quantum ESPRESSO suite
     for quantum simulation of materials; please cite
         "P. Giannozzi et al., J. Phys.:Condens. Matter 21 395502 (2009);
         "P. Giannozzi et al., J. Phys.:Condens. Matter 29 465901 (2017);
         "P. Giannozzi et al., J. Chem. Phys. 152 154105 (2020);
          URL http://www.quantum-espresso.org", 
     in publications or presentations arising from this work. More details at
     http://www.quantum-espresso.org/quote

     Parallel version (MPI & OpenMP), running on      32 processor cores
     Number of MPI processes:                 4
     Threads/MPI process:                     8

     MPI processes distributed on     1 nodes
     501181 MiB available memory on the printing compute node when the environment starts
 
     Waiting for input...
     Reading input from standard input

     Current dimensions of program PWSCF are:
     Max number of different atomic species (ntypx) = 10
     Max number of k-points (npk) =  40000
     Max angular momentum in pseudopotentials (lmaxx) =  4
     file O.pbe-n-kjpaw_psl.1.0.0.UPF: wavefunction(s)  2S 2P renormalized
     file H.pbe-kjpaw_psl.1.0.0.UPF: wavefunction(s)  1S renormalized

     gamma-point specific algorithms are used
 
     K-points division:     npool     =       2
     R & G space division:  proc/nbgrp/npool/nimage =       2
     Subspace diagonalization in iterative solution of the eigenvalue problem:
     a serial algorithm will be used

 
     Parallelization info
     --------------------
     sticks:   dense  smooth     PW     G-vecs:    dense   smooth      PW
     Min       23082   11538   2885              3794045  1341403  167663
     Max       23083   11541   2886              3794046  1341406  167666
     Sum       46165   23079   5771              7588091  2682809  335329
 
     Using Slab Decomposition
 


     bravais-lattice index     =            0
     lattice parameter (alat)  =      37.7945  a.u.
     unit-cell volume          =   56166.3880 (a.u.)^3
     number of atoms/cell      =            1
     number of atomic types    =            4
     number of electrons       =         6.00
     number of Kohn-Sham states=            7
     kinetic-energy cutoff     =      50.0000  Ry
     charge density cutoff     =     400.0000  Ry
     scf convergence threshold =      1.0E-06
     mixing beta               =       0.2000
     number of iterations used =            8  local-TF  mixing
     Exchange-correlation= SLA  PW   PBX  PBC
                           (   1   4   3   4   0   0   0)

     GPU acceleration is ACTIVE.  4 visible GPUs per MPI rank
     GPU-aware MPI enabled


     celldm(1)=  37.794522  celldm(2)=   0.000000  celldm(3)=   0.000000
     celldm(4)=   0.000000  celldm(5)=   0.000000  celldm(6)=   0.000000

     crystal axes: (cart. coord. in units of alat)
               a(1) = (   1.000000   0.000000   0.000000 )  
               a(2) = (   0.000000   1.015000   0.000000 )  
               a(3) = (   0.000000   0.000000   1.025000 )  

     reciprocal axes: (cart. coord. in units 2 pi/alat)
               b(1) = (  1.000000  0.000000  0.000000 )  
               b(2) = (  0.000000  0.985222  0.000000 )  
               b(3) = (  0.000000  0.000000  0.975610 )  


     PseudoPot. # 1 for Mo read from file:
     /leonardo/home/userexternal/apacini0/PSEUDO/Mo.pbe-spn-rrkjus_psl.0.2.UPF
     MD5 check sum: fc6921ed78563293cf4f0ffad66b730e
     Pseudo is Ultrasoft + core correction, Zval = 14.0
     Generated using "atomic" code by A. Dal Corso  v.5.0.2 svn rev. 9415
     Using radial grid of 1229 points,  6 beta functions with: 
                l(1) =   0
                l(2) =   0
                l(3) =   1
                l(4) =   1
                l(5) =   2
                l(6) =   2
     Q(r) pseudized with 0 coefficients 


     PseudoPot. # 2 for S  read from file:
     /leonardo/home/userexternal/apacini0/PSEUDO/S.pbe-n-rrkjus_psl.0.1.UPF
     MD5 check sum: bcce8fa2324dad47c8296339772e3939
     Pseudo is Ultrasoft + core correction, Zval =  6.0
     Generated using "atomic" code by A. Dal Corso  v.5.0.2 svn rev. 9415
     Using radial grid of 1151 points,  4 beta functions with: 
                l(1) =   0
                l(2) =   0
                l(3) =   1
                l(4) =   1
     Q(r) pseudized with 0 coefficients 


     PseudoPot. # 3 for O  read from file:
     /leonardo/home/userexternal/apacini0/PSEUDO/O.pbe-n-kjpaw_psl.1.0.0.UPF
     MD5 check sum: e99d9cef9b487d1ca56f5b95ecd0fd7a
     Pseudo is Projector augmented-wave + core cor, Zval =  6.0
     Generated using &quot;atomic&quot; code by A. Dal Corso  v.6.3
     Shape of augmentation charge: PSQ
     Using radial grid of 1095 points,  4 beta functions with: 
                l(1) =   0
                l(2) =   0
                l(3) =   1
                l(4) =   1
     Q(r) pseudized with 0 coefficients 


     PseudoPot. # 4 for H  read from file:
     /leonardo/home/userexternal/apacini0/PSEUDO/H.pbe-kjpaw_psl.1.0.0.UPF
     MD5 check sum: d81a744832360e4a8af0b0b5b123bc2a
     Pseudo is Projector augmented-wave, Zval =  1.0
     Generated using &quot;atomic&quot; code by A. Dal Corso  v.6.3MaX
     Shape of augmentation charge: PSQ
     Using radial grid of  929 points,  2 beta functions with: 
                l(1) =   0
                l(2) =   0
     Q(r) pseudized with 0 coefficients 


     atomic species   valence    mass     pseudopotential
     Mo               14.00    95.95000     Mo( 1.00)
     S                 6.00    32.06500     S ( 1.00)
     O                 6.00    15.99900     O ( 1.00)
     H                 1.00     1.00800     H ( 1.00)

     Starting magnetic structure 
     atomic species   magnetization
     Mo              0.200
     S               0.200
     O               0.200
     H               0.200

     No symmetry found



   Cartesian axes

     site n.     atom                  positions (alat units)
         1        O      tau(   1) = (   0.0000000   0.0000000   0.0000000  )

     --------------------------------------------
     DFT-D3 Dispersion Correction (3-body terms):
     --------------------------------------------
       Reference C6 values for interpolation: 

         atom   Coordination number   C6
         H          0.912             6.05
         H          0.000            15.18
         O          0.000            31.01
         O          0.993            25.63
         O          1.989            20.74
         S          0.000           268.01
         S          0.995           261.99
         S          1.990           251.62
         Mo         0.000          1691.79
         Mo         1.942          1004.01
         Mo        11.056           674.22

       Values used:

         atom   Coordination number  R0_AB[au]  C6      C8
         O          0.000            2.345     30.90    623.64

         Molecular C6 ( Ry / a.u.^6 ) =        30.90


     number of k points=     1  Gaussian smearing, width (Ry)=  0.0200
                       cart. coord. in units 2pi/alat
        k(    1) = (   0.0000000   0.0000000   0.0000000), wk =   1.0000000

     Dense  grid:  3794046 G-vectors     FFT dimensions: ( 243, 250, 250)

     Smooth grid:  1341405 G-vectors     FFT dimensions: ( 180, 180, 180)

     Estimated max dynamical RAM per process >       5.00 GB

     Estimated total dynamical RAM >      18.19 GB
     Generating pointlists ...
     new r_m :   0.4125 (alat units) 15.5902 (a.u.) for type    1
     new r_m :   0.4125 (alat units) 15.5902 (a.u.) for type    2
     new r_m :   0.4125 (alat units) 15.5902 (a.u.) for type    3
     new r_m :   0.4125 (alat units) 15.5902 (a.u.) for type    4

     Initial potential from superposition of free atoms

     starting charge       6.0000, renormalised to       6.0000

     negative rho (up, down):  1.223E-03 8.151E-04
     Starting wfcs are    4 randomized atomic wfcs +    3 random wfcs
     Checking if some PAW data can be deallocated... 

     total cpu time spent up to now is        5.1 secs

     per-process dynamical memory:  1361.9 Mb

     Self-consistent Calculation

     iteration #  1     ecut=    50.00 Ry     beta= 0.20
     Davidson diagonalization with overlap
     ethr =  1.00E-02,  avg # of iterations =  4.0

     Threshold (ethr) on eigenvalues was too large:
     Diagonalizing with lowered threshold

     Davidson diagonalization with overlap
     ethr =  2.23E-04,  avg # of iterations =  6.0

     negative rho (up, down):  1.180E-03 6.473E-04

     total cpu time spent up to now is        7.5 secs

     total energy              =     -41.26874080 Ry
     estimated scf accuracy    <       0.01605275 Ry

     total magnetization       =     2.00 Bohr mag/cell
     absolute magnetization    =     2.00 Bohr mag/cell

     iteration #  2     ecut=    50.00 Ry     beta= 0.20
     Davidson diagonalization with overlap
     ethr =  2.68E-04,  avg # of iterations =  2.0

     negative rho (up, down):  1.728E-03 1.840E-03

     total cpu time spent up to now is        9.1 secs

     total energy              =     -41.28116245 Ry
     estimated scf accuracy    <       0.01058501 Ry

     total magnetization       =     2.00 Bohr mag/cell
     absolute magnetization    =     2.00 Bohr mag/cell

     iteration #  3     ecut=    50.00 Ry     beta= 0.20
     Davidson diagonalization with overlap
     ethr =  1.76E-04,  avg # of iterations =  2.0

     negative rho (up, down):  1.481E-03 1.401E-03

     total cpu time spent up to now is       10.8 secs

     total energy              =     -41.28200312 Ry
     estimated scf accuracy    <       0.00011959 Ry

     total magnetization       =     2.00 Bohr mag/cell
     absolute magnetization    =     2.00 Bohr mag/cell

     iteration #  4     ecut=    50.00 Ry     beta= 0.20
     Davidson diagonalization with overlap
     c_bands:  3 eigenvalues not converged
     ethr =  1.99E-06,  avg # of iterations = 20.0

     negative rho (up, down):  1.233E-03 9.630E-04

     total cpu time spent up to now is       12.6 secs

     total energy              =     -41.28201211 Ry
     estimated scf accuracy    <       0.00013275 Ry

     total magnetization       =     2.00 Bohr mag/cell
     absolute magnetization    =     2.00 Bohr mag/cell

     iteration #  5     ecut=    50.00 Ry     beta= 0.20
     Davidson diagonalization with overlap
     c_bands:  3 eigenvalues not converged
     ethr =  1.99E-06,  avg # of iterations = 20.0

     negative rho (up, down):  1.078E-03 7.045E-04

     total cpu time spent up to now is       14.4 secs

     total energy              =     -41.28194262 Ry
     estimated scf accuracy    <       0.00014800 Ry

     total magnetization       =     2.00 Bohr mag/cell
     absolute magnetization    =     2.00 Bohr mag/cell

     iteration #  6     ecut=    50.00 Ry     beta= 0.20
     Davidson diagonalization with overlap
     ethr =  1.99E-06,  avg # of iterations = 11.0

     negative rho (up, down):  8.479E-04 2.934E-04

     total cpu time spent up to now is       16.2 secs

     total energy              =     -41.28204187 Ry
     estimated scf accuracy    <       0.00009272 Ry

     total magnetization       =     2.00 Bohr mag/cell
     absolute magnetization    =     2.00 Bohr mag/cell

     iteration #  7     ecut=    50.00 Ry     beta= 0.20
     Davidson diagonalization with overlap
     ethr =  1.55E-06,  avg # of iterations =  2.5

     negative rho (up, down):  8.591E-04 2.124E-04

     total cpu time spent up to now is       17.9 secs

     total energy              =     -41.28210970 Ry
     estimated scf accuracy    <       0.00008359 Ry

     total magnetization       =     2.00 Bohr mag/cell
     absolute magnetization    =     2.00 Bohr mag/cell

     iteration #  8     ecut=    50.00 Ry     beta= 0.20
     Davidson diagonalization with overlap
     ethr =  1.39E-06,  avg # of iterations =  3.0

     negative rho (up, down):  7.500E-04 1.219E-04

     total cpu time spent up to now is       19.7 secs

     total energy              =     -41.28210753 Ry
     estimated scf accuracy    <       0.00002932 Ry

     total magnetization       =     2.00 Bohr mag/cell
     absolute magnetization    =     2.00 Bohr mag/cell

     iteration #  9     ecut=    50.00 Ry     beta= 0.20
     Davidson diagonalization with overlap
     ethr =  4.89E-07,  avg # of iterations =  2.0

     negative rho (up, down):  7.669E-04 8.885E-05

     total cpu time spent up to now is       21.6 secs

     total energy              =     -41.28210993 Ry
     estimated scf accuracy    <       0.00002943 Ry

     total magnetization       =     2.00 Bohr mag/cell
     absolute magnetization    =     2.00 Bohr mag/cell

     iteration # 10     ecut=    50.00 Ry     beta= 0.20
     Davidson diagonalization with overlap
     ethr =  4.89E-07,  avg # of iterations =  6.5

     negative rho (up, down):  1.195E-03 3.362E-04

     total cpu time spent up to now is       23.6 secs

     total energy              =     -41.28211854 Ry
     estimated scf accuracy    <       0.00000987 Ry

     total magnetization       =     2.00 Bohr mag/cell
     absolute magnetization    =     2.00 Bohr mag/cell

     iteration # 11     ecut=    50.00 Ry     beta= 0.20
     Davidson diagonalization with overlap
     ethr =  1.65E-07,  avg # of iterations = 13.0

     negative rho (up, down):  1.627E-03 7.306E-04

     total cpu time spent up to now is       25.4 secs

     total energy              =     -41.28212965 Ry
     estimated scf accuracy    <       0.00000637 Ry

     total magnetization       =     2.00 Bohr mag/cell
     absolute magnetization    =     2.00 Bohr mag/cell

     iteration # 12     ecut=    50.00 Ry     beta= 0.20
     Davidson diagonalization with overlap
     ethr =  1.06E-07,  avg # of iterations =  5.5

     negative rho (up, down):  1.519E-03 5.175E-04

     total cpu time spent up to now is       27.2 secs

     total energy              =     -41.28213569 Ry
     estimated scf accuracy    <       0.00000980 Ry

     total magnetization       =     2.00 Bohr mag/cell
     absolute magnetization    =     2.00 Bohr mag/cell

     iteration # 13     ecut=    50.00 Ry     beta= 0.20
     Davidson diagonalization with overlap
     ethr =  1.06E-07,  avg # of iterations =  3.0

     negative rho (up, down):  1.511E-03 4.953E-04

     total cpu time spent up to now is       29.1 secs

     total energy              =     -41.28213751 Ry
     estimated scf accuracy    <       0.00000225 Ry

     total magnetization       =     2.00 Bohr mag/cell
     absolute magnetization    =     2.00 Bohr mag/cell

     iteration # 14     ecut=    50.00 Ry     beta= 0.20
     Davidson diagonalization with overlap
     ethr =  3.75E-08,  avg # of iterations =  2.0

     negative rho (up, down):  1.495E-03 4.716E-04

     total cpu time spent up to now is       30.9 secs

     total energy              =     -41.28213699 Ry
     estimated scf accuracy    <       0.00000219 Ry

     total magnetization       =     2.00 Bohr mag/cell
     absolute magnetization    =     2.00 Bohr mag/cell

     iteration # 15     ecut=    50.00 Ry     beta= 0.20
     Davidson diagonalization with overlap
     ethr =  3.65E-08,  avg # of iterations =  1.5

     negative rho (up, down):  1.617E-03 5.830E-04

     total cpu time spent up to now is       32.7 secs

     total energy              =     -41.28213770 Ry
     estimated scf accuracy    <       0.00000264 Ry

     total magnetization       =     2.00 Bohr mag/cell
     absolute magnetization    =     2.00 Bohr mag/cell

     iteration # 16     ecut=    50.00 Ry     beta= 0.20
     Davidson diagonalization with overlap
     ethr =  3.65E-08,  avg # of iterations =  2.0

     negative rho (up, down):  1.709E-03 6.453E-04

     total cpu time spent up to now is       34.5 secs

     total energy              =     -41.28214011 Ry
     estimated scf accuracy    <       0.00000135 Ry

     total magnetization       =     2.00 Bohr mag/cell
     absolute magnetization    =     2.00 Bohr mag/cell

     iteration # 17     ecut=    50.00 Ry     beta= 0.20
     Davidson diagonalization with overlap
     ethr =  2.24E-08,  avg # of iterations =  3.5

     negative rho (up, down):  1.624E-03 5.193E-04

     total cpu time spent up to now is       36.4 secs

     total energy              =     -41.28214200 Ry
     estimated scf accuracy    <       0.00000157 Ry

     total magnetization       =     2.00 Bohr mag/cell
     absolute magnetization    =     2.00 Bohr mag/cell

     iteration # 18     ecut=    50.00 Ry     beta= 0.20
     Davidson diagonalization with overlap
     ethr =  2.24E-08,  avg # of iterations =  2.0

     negative rho (up, down):  1.822E-03 6.836E-04
 
     Magnetic moment per site  (integrated on atomic sphere of radius R)
     atom   1 (R=0.413)  charge=  6.0000  magn=  2.0000

     total cpu time spent up to now is       37.7 secs

     End of self-consistent calculation

 ------ SPIN UP ------------


          k = 0.0000 0.0000 0.0000 (167665 PWs)   bands (ev):

   -25.2093 -10.2134 -10.2120 -10.2078  -0.2940  -0.0531   0.1868

 ------ SPIN DOWN ----------


          k = 0.0000 0.0000 0.0000 (167665 PWs)   bands (ev):

   -21.9629  -7.1800  -7.1779  -7.1770  -0.2395   0.0068   0.1805

     the Fermi energy is    -7.2612 ev

!    total energy              =     -41.28214538 Ry
     total all-electron energy =      -150.129036 Ry
     estimated scf accuracy    <       0.00000083 Ry
     smearing contrib. (-TS)   =      -0.01542591 Ry
     internal energy E=F+TS    =     -41.26671947 Ry

     The total energy is F=E-TS. E is the sum of the following terms:
     one-electron contribution =     -46.69567243 Ry
     hartree contribution      =      24.75306167 Ry
     xc contribution           =      -7.05434128 Ry
     ewald contribution        =      -2.66673830 Ry
     DFT-D3 Dispersion         =      -0.00000004 Ry
     one-center paw contrib.   =      -9.60302909 Ry

     total magnetization       =     2.00 Bohr mag/cell
     absolute magnetization    =     2.00 Bohr mag/cell

     convergence has been achieved in  18 iterations

     negative rho (up, down):  1.822E-03 6.836E-04

     Forces acting on atoms (cartesian axes, Ry/au):

     atom    1 type  3   force =     0.00000000    0.00000000    0.00000000

     Total force =     0.000000     Total SCF correction =     0.000865
     Message from routine punch:
     Nothing written, as per user request (disk_io='none')
 
     init_run     :      3.92s CPU      4.54s WALL (       1 calls)
     electrons    :     42.67s CPU     32.71s WALL (       1 calls)
     forces       :      0.41s CPU      0.35s WALL (       1 calls)
     force_dftd3  :      0.07s CPU      0.07s WALL (       1 calls)

     Called by init_run:
     wfcinit      :      0.02s CPU      0.28s WALL (       1 calls)
     potinit      :      2.17s CPU      2.14s WALL (       1 calls)
     hinit0       :      0.64s CPU      0.89s WALL (       1 calls)

     Called by electrons:
     c_bands      :      0.75s CPU      0.80s WALL (      19 calls)
     sum_band     :      5.21s CPU      5.27s WALL (      19 calls)
     v_of_rho     :      3.37s CPU      3.18s WALL (      19 calls)
     newd         :      4.69s CPU      4.71s WALL (      19 calls)
                                        4.71s GPU  (      19 calls)
     PAW_pot      :      2.56s CPU      1.29s WALL (      19 calls)
     mix_rho      :     10.98s CPU      7.84s WALL (      19 calls)
     energy_dftd3 :      0.00s CPU      0.00s WALL (       1 calls)

     Called by c_bands:
     init_us_2    :      0.02s CPU      0.02s WALL (      39 calls)
     regterg      :      0.65s CPU      0.69s WALL (      19 calls)

     Called by *egterg:
     rdiaghg      :      0.03s CPU      0.04s WALL (     133 calls)
                                        0.04s GPU  (     133 calls)
     h_psi        :      0.44s CPU      0.72s WALL (     135 calls)
                                        0.72s GPU  (     135 calls)
     s_psi        :      0.01s CPU      0.01s WALL (     135 calls)
     g_psi        :      0.00s CPU      0.00s WALL (     115 calls)
                                        0.00s GPU  (     115 calls)

     Called by h_psi:
     h_psi:calbec :      0.03s CPU      0.03s WALL (     135 calls)
                                        0.03s GPU  (     135 calls)
     vloc_psi     :      0.30s CPU      0.58s WALL (     135 calls)
                                        0.58s GPU  (     135 calls)
     add_vuspsi   :      0.01s CPU      0.01s WALL (     135 calls)
                                        0.01s GPU  (     135 calls)

     General routines
     calbec       :      0.04s CPU      0.04s WALL (     158 calls)
     fft          :      9.33s CPU      5.03s WALL (     356 calls)
                                        0.75s GPU  (     318 calls)
     ffts         :      5.15s CPU      3.68s WALL (    2148 calls)
                                        1.62s GPU  (    2110 calls)
     fftw         :      0.17s CPU      0.53s WALL (     346 calls)
                                        0.53s GPU  (     346 calls)
     interpolate  :     13.49s CPU      7.68s WALL (      38 calls)
 
     Parallel routines
 
     PWSCF        :     47.52s CPU     38.19s WALL

 
   This run was terminated on:  10:48:48  15Nov2025            

=------------------------------------------------------------------------------=
   JOB DONE.
=------------------------------------------------------------------------------=
