
     Program PWSCF v.7.3.1 starts on 15Nov2025 at 10:48:49 

     This program is part of the open-source Quantum ESPRESSO suite
     for quantum simulation of materials; please cite
         "P. Giannozzi et al., J. Phys.:Condens. Matter 21 395502 (2009);
         "P. Giannozzi et al., J. Phys.:Condens. Matter 29 465901 (2017);
         "P. Giannozzi et al., J. Chem. Phys. 152 154105 (2020);
          URL http://www.quantum-espresso.org", 
     in publications or presentations arising from this work. More details at
     http://www.quantum-espresso.org/quote

     Parallel version (MPI & OpenMP), running on      32 processor cores
     Number of MPI processes:                 4
     Threads/MPI process:                     8

     MPI processes distributed on     1 nodes
     501179 MiB available memory on the printing compute node when the environment starts
 
     Waiting for input...
     Reading input from standard input

     Current dimensions of program PWSCF are:
     Max number of different atomic species (ntypx) = 10
     Max number of k-points (npk) =  40000
     Max angular momentum in pseudopotentials (lmaxx) =  4
     file O.pbe-n-kjpaw_psl.1.0.0.UPF: wavefunction(s)  2S 2P renormalized
     file H.pbe-kjpaw_psl.1.0.0.UPF: wavefunction(s)  1S renormalized

     gamma-point specific algorithms are used
 
     K-points division:     npool     =       2
     R & G space division:  proc/nbgrp/npool/nimage =       2
     Subspace diagonalization in iterative solution of the eigenvalue problem:
     a serial algorithm will be used

 
     Parallelization info
     --------------------
     sticks:   dense  smooth     PW     G-vecs:    dense   smooth      PW
     Min       23082   11538   2885              3794045  1341403  167663
     Max       23083   11541   2886              3794046  1341406  167666
     Sum       46165   23079   5771              7588091  2682809  335329
 
     Using Slab Decomposition
 


     bravais-lattice index     =            0
     lattice parameter (alat)  =      37.7945  a.u.
     unit-cell volume          =   56166.3880 (a.u.)^3
     number of atoms/cell      =            1
     number of atomic types    =            4
     number of electrons       =         6.00
     number of Kohn-Sham states=            7
     kinetic-energy cutoff     =      50.0000  Ry
     charge density cutoff     =     400.0000  Ry
     scf convergence threshold =      1.0E-06
     mixing beta               =       0.2000
     number of iterations used =            8  local-TF  mixing
     Exchange-correlation= SLA  PW   PBX  PBC
                           (   1   4   3   4   0   0   0)

     GPU acceleration is ACTIVE.  4 visible GPUs per MPI rank
     GPU-aware MPI enabled


     celldm(1)=  37.794522  celldm(2)=   0.000000  celldm(3)=   0.000000
     celldm(4)=   0.000000  celldm(5)=   0.000000  celldm(6)=   0.000000

     crystal axes: (cart. coord. in units of alat)
               a(1) = (   1.000000   0.000000   0.000000 )  
               a(2) = (   0.000000   1.015000   0.000000 )  
               a(3) = (   0.000000   0.000000   1.025000 )  

     reciprocal axes: (cart. coord. in units 2 pi/alat)
               b(1) = (  1.000000  0.000000  0.000000 )  
               b(2) = (  0.000000  0.985222  0.000000 )  
               b(3) = (  0.000000  0.000000  0.975610 )  


     PseudoPot. # 1 for Mo read from file:
     /leonardo/home/userexternal/apacini0/PSEUDO/Mo.pbe-spn-rrkjus_psl.0.2.UPF
     MD5 check sum: fc6921ed78563293cf4f0ffad66b730e
     Pseudo is Ultrasoft + core correction, Zval = 14.0
     Generated using "atomic" code by A. Dal Corso  v.5.0.2 svn rev. 9415
     Using radial grid of 1229 points,  6 beta functions with: 
                l(1) =   0
                l(2) =   0
                l(3) =   1
                l(4) =   1
                l(5) =   2
                l(6) =   2
     Q(r) pseudized with 0 coefficients 


     PseudoPot. # 2 for S  read from file:
     /leonardo/home/userexternal/apacini0/PSEUDO/S.pbe-n-rrkjus_psl.0.1.UPF
     MD5 check sum: bcce8fa2324dad47c8296339772e3939
     Pseudo is Ultrasoft + core correction, Zval =  6.0
     Generated using "atomic" code by A. Dal Corso  v.5.0.2 svn rev. 9415
     Using radial grid of 1151 points,  4 beta functions with: 
                l(1) =   0
                l(2) =   0
                l(3) =   1
                l(4) =   1
     Q(r) pseudized with 0 coefficients 


     PseudoPot. # 3 for O  read from file:
     /leonardo/home/userexternal/apacini0/PSEUDO/O.pbe-n-kjpaw_psl.1.0.0.UPF
     MD5 check sum: e99d9cef9b487d1ca56f5b95ecd0fd7a
     Pseudo is Projector augmented-wave + core cor, Zval =  6.0
     Generated using &quot;atomic&quot; code by A. Dal Corso  v.6.3
     Shape of augmentation charge: PSQ
     Using radial grid of 1095 points,  4 beta functions with: 
                l(1) =   0
                l(2) =   0
                l(3) =   1
                l(4) =   1
     Q(r) pseudized with 0 coefficients 


     PseudoPot. # 4 for H  read from file:
     /leonardo/home/userexternal/apacini0/PSEUDO/H.pbe-kjpaw_psl.1.0.0.UPF
     MD5 check sum: d81a744832360e4a8af0b0b5b123bc2a
     Pseudo is Projector augmented-wave, Zval =  1.0
     Generated using &quot;atomic&quot; code by A. Dal Corso  v.6.3MaX
     Shape of augmentation charge: PSQ
     Using radial grid of  929 points,  2 beta functions with: 
                l(1) =   0
                l(2) =   0
     Q(r) pseudized with 0 coefficients 


     atomic species   valence    mass     pseudopotential
     Mo               14.00    95.95000     Mo( 1.00)
     S                 6.00    32.06500     S ( 1.00)
     O                 6.00    15.99900     O ( 1.00)
     H                 1.00     1.00800     H ( 1.00)

     Starting magnetic structure 
     atomic species   magnetization
     Mo              0.200
     S               0.200
     O               0.200
     H               0.200

     No symmetry found



   Cartesian axes

     site n.     atom                  positions (alat units)
         1        S      tau(   1) = (   0.0000000   0.0000000   0.0000000  )

     --------------------------------------------
     DFT-D3 Dispersion Correction (3-body terms):
     --------------------------------------------
       Reference C6 values for interpolation: 

         atom   Coordination number   C6
         H          0.912             6.05
         H          0.000            15.18
         O          0.000            31.01
         O          0.993            25.63
         O          1.989            20.74
         S          0.000           268.01
         S          0.995           261.99
         S          1.990           251.62
         Mo         0.000          1691.79
         Mo         1.942          1004.01
         Mo        11.056           674.22

       Values used:

         atom   Coordination number  R0_AB[au]  C6      C8
         S          0.000            3.128    267.90  13124.73

         Molecular C6 ( Ry / a.u.^6 ) =       267.90


     number of k points=     1  Gaussian smearing, width (Ry)=  0.0200
                       cart. coord. in units 2pi/alat
        k(    1) = (   0.0000000   0.0000000   0.0000000), wk =   1.0000000

     Dense  grid:  3794046 G-vectors     FFT dimensions: ( 243, 250, 250)

     Smooth grid:  1341405 G-vectors     FFT dimensions: ( 180, 180, 180)

     Estimated max dynamical RAM per process >       5.00 GB

     Estimated total dynamical RAM >      18.19 GB
     Generating pointlists ...
     new r_m :   0.4125 (alat units) 15.5902 (a.u.) for type    1
     new r_m :   0.4125 (alat units) 15.5902 (a.u.) for type    2
     new r_m :   0.4125 (alat units) 15.5902 (a.u.) for type    3
     new r_m :   0.4125 (alat units) 15.5902 (a.u.) for type    4

     Initial potential from superposition of free atoms

     starting charge       6.0000, renormalised to       6.0000

     negative rho (up, down):  6.450E-05 4.300E-05
     Starting wfcs are    4 randomized atomic wfcs +    3 random wfcs
     Checking if some PAW data can be deallocated... 

     total cpu time spent up to now is        5.0 secs

     per-process dynamical memory:  1360.1 Mb

     Self-consistent Calculation

     iteration #  1     ecut=    50.00 Ry     beta= 0.20
     Davidson diagonalization with overlap
     ethr =  1.00E-02,  avg # of iterations =  6.0

     Threshold (ethr) on eigenvalues was too large:
     Diagonalizing with lowered threshold

     Davidson diagonalization with overlap
     ethr =  3.35E-05,  avg # of iterations = 13.0

     negative rho (up, down):  6.824E-06 1.538E-06

     total cpu time spent up to now is        7.4 secs

     total energy              =     -22.59368934 Ry
     estimated scf accuracy    <       0.00207324 Ry

     total magnetization       =     2.00 Bohr mag/cell
     absolute magnetization    =     2.00 Bohr mag/cell

     iteration #  2     ecut=    50.00 Ry     beta= 0.20
     Davidson diagonalization with overlap
     ethr =  3.46E-05,  avg # of iterations =  1.0

     negative rho (up, down):  5.384E-08 4.911E-09

     total cpu time spent up to now is        9.0 secs

     total energy              =     -22.60024498 Ry
     estimated scf accuracy    <       0.00139665 Ry

     total magnetization       =     2.00 Bohr mag/cell
     absolute magnetization    =     2.00 Bohr mag/cell

     iteration #  3     ecut=    50.00 Ry     beta= 0.20
     Davidson diagonalization with overlap
     ethr =  2.33E-05,  avg # of iterations =  1.5

     total cpu time spent up to now is       10.6 secs

     total energy              =     -22.60038197 Ry
     estimated scf accuracy    <       0.00003425 Ry

     total magnetization       =     2.00 Bohr mag/cell
     absolute magnetization    =     2.00 Bohr mag/cell

     iteration #  4     ecut=    50.00 Ry     beta= 0.20
     Davidson diagonalization with overlap
     ethr =  5.71E-07,  avg # of iterations = 11.0

     total cpu time spent up to now is       12.4 secs

     total energy              =     -22.60038794 Ry
     estimated scf accuracy    <       0.00002973 Ry

     total magnetization       =     2.00 Bohr mag/cell
     absolute magnetization    =     2.00 Bohr mag/cell

     iteration #  5     ecut=    50.00 Ry     beta= 0.20
     Davidson diagonalization with overlap
     ethr =  4.96E-07,  avg # of iterations =  1.0

     total cpu time spent up to now is       14.2 secs

     total energy              =     -22.60038917 Ry
     estimated scf accuracy    <       0.00001877 Ry

     total magnetization       =     2.00 Bohr mag/cell
     absolute magnetization    =     2.00 Bohr mag/cell

     iteration #  6     ecut=    50.00 Ry     beta= 0.20
     Davidson diagonalization with overlap
     ethr =  3.13E-07,  avg # of iterations =  1.5

     negative rho (up, down):  3.896E-08 4.252E-08

     total cpu time spent up to now is       15.9 secs

     total energy              =     -22.60038125 Ry
     estimated scf accuracy    <       0.00004368 Ry

     total magnetization       =     2.00 Bohr mag/cell
     absolute magnetization    =     2.00 Bohr mag/cell

     iteration #  7     ecut=    50.00 Ry     beta= 0.20
     Davidson diagonalization with overlap
     ethr =  3.13E-07,  avg # of iterations =  7.5

     negative rho (up, down):  1.307E-05 1.421E-05

     total cpu time spent up to now is       17.7 secs

     total energy              =     -22.60038595 Ry
     estimated scf accuracy    <       0.00000471 Ry

     total magnetization       =     2.00 Bohr mag/cell
     absolute magnetization    =     2.00 Bohr mag/cell

     iteration #  8     ecut=    50.00 Ry     beta= 0.20
     Davidson diagonalization with overlap
     ethr =  7.85E-08,  avg # of iterations =  6.0

     negative rho (up, down):  6.260E-05 5.996E-05

     total cpu time spent up to now is       19.5 secs

     total energy              =     -22.60039809 Ry
     estimated scf accuracy    <       0.00000645 Ry

     total magnetization       =     2.00 Bohr mag/cell
     absolute magnetization    =     2.00 Bohr mag/cell

     iteration #  9     ecut=    50.00 Ry     beta= 0.20
     Davidson diagonalization with overlap
     ethr =  7.85E-08,  avg # of iterations =  5.5

     negative rho (up, down):  8.173E-05 7.862E-05

     total cpu time spent up to now is       21.4 secs

     total energy              =     -22.60039837 Ry
     estimated scf accuracy    <       0.00000300 Ry

     total magnetization       =     2.00 Bohr mag/cell
     absolute magnetization    =     2.00 Bohr mag/cell

     iteration # 10     ecut=    50.00 Ry     beta= 0.20
     Davidson diagonalization with overlap
     ethr =  5.00E-08,  avg # of iterations =  1.5

     negative rho (up, down):  2.065E-05 1.417E-05

     total cpu time spent up to now is       23.1 secs

     total energy              =     -22.60039948 Ry
     estimated scf accuracy    <       0.00000102 Ry

     total magnetization       =     2.00 Bohr mag/cell
     absolute magnetization    =     2.00 Bohr mag/cell

     iteration # 11     ecut=    50.00 Ry     beta= 0.20
     Davidson diagonalization with overlap
     ethr =  1.69E-08,  avg # of iterations = 10.0

     negative rho (up, down):  1.560E-05 9.803E-06
 
     Magnetic moment per site  (integrated on atomic sphere of radius R)
     atom   1 (R=0.413)  charge=  6.0000  magn=  2.0000

     total cpu time spent up to now is       24.6 secs

     End of self-consistent calculation

 ------ SPIN UP ------------


          k = 0.0000 0.0000 0.0000 (167665 PWs)   bands (ev):

   -17.9842  -7.6674  -7.6663  -7.6651  -0.4652   0.0126   0.2350

 ------ SPIN DOWN ----------


          k = 0.0000 0.0000 0.0000 (167665 PWs)   bands (ev):

   -16.0701  -5.9351  -5.9341  -5.9334  -0.2729   0.0470   0.2617

     the Fermi energy is    -6.0171 ev

!    total energy              =     -22.60039973 Ry
     estimated scf accuracy    <       0.00000011 Ry
     smearing contrib. (-TS)   =      -0.01542614 Ry
     internal energy E=F+TS    =     -22.58497359 Ry

     The total energy is F=E-TS. E is the sum of the following terms:
     one-electron contribution =     -27.29749162 Ry
     hartree contribution      =      14.21011094 Ry
     xc contribution           =      -6.83085426 Ry
     ewald contribution        =      -2.66673830 Ry
     DFT-D3 Dispersion         =      -0.00000036 Ry
     one-center paw contrib.   =       0.00000000 Ry

     total magnetization       =     2.00 Bohr mag/cell
     absolute magnetization    =     2.00 Bohr mag/cell

     convergence has been achieved in  11 iterations

     negative rho (up, down):  1.560E-05 9.803E-06

     Forces acting on atoms (cartesian axes, Ry/au):

     atom    1 type  2   force =     0.00000000    0.00000000    0.00000000

     Total force =     0.000000     Total SCF correction =     0.000061
     Message from routine punch:
     Nothing written, as per user request (disk_io='none')
 
     init_run     :      3.77s CPU      4.50s WALL (       1 calls)
     electrons    :     24.99s CPU     19.56s WALL (       1 calls)
     forces       :      0.43s CPU      0.35s WALL (       1 calls)
     force_dftd3  :      0.00s CPU      0.00s WALL (       1 calls)

     Called by init_run:
     wfcinit      :      0.02s CPU      0.28s WALL (       1 calls)
     potinit      :      2.03s CPU      2.10s WALL (       1 calls)
     hinit0       :      0.64s CPU      0.89s WALL (       1 calls)

     Called by electrons:
     c_bands      :      0.45s CPU      0.49s WALL (      12 calls)
     sum_band     :      3.29s CPU      3.35s WALL (      12 calls)
     v_of_rho     :      2.14s CPU      2.06s WALL (      12 calls)
     newd         :      2.74s CPU      2.75s WALL (      12 calls)
                                        2.75s GPU  (      12 calls)
     PAW_pot      :      0.51s CPU      0.51s WALL (      12 calls)
     mix_rho      :      6.59s CPU      4.37s WALL (      12 calls)
     energy_dftd3 :      0.00s CPU      0.00s WALL (       1 calls)

     Called by c_bands:
     init_us_2    :      0.01s CPU      0.01s WALL (      25 calls)
     regterg      :      0.39s CPU      0.42s WALL (      12 calls)

     Called by *egterg:
     rdiaghg      :      0.02s CPU      0.03s WALL (      80 calls)
                                        0.03s GPU  (      80 calls)
     h_psi        :      0.26s CPU      0.55s WALL (      82 calls)
                                        0.54s GPU  (      82 calls)
     s_psi        :      0.00s CPU      0.00s WALL (      82 calls)
     g_psi        :      0.00s CPU      0.00s WALL (      69 calls)
                                        0.00s GPU  (      69 calls)

     Called by h_psi:
     h_psi:calbec :      0.02s CPU      0.03s WALL (      82 calls)
                                        0.03s GPU  (      82 calls)
     vloc_psi     :      0.17s CPU      0.45s WALL (      82 calls)
                                        0.45s GPU  (      82 calls)
     add_vuspsi   :      0.00s CPU      0.01s WALL (      82 calls)
                                        0.01s GPU  (      82 calls)

     General routines
     calbec       :      0.03s CPU      0.03s WALL (      98 calls)
     fft          :      5.89s CPU      3.44s WALL (     230 calls)
                                        0.54s GPU  (     206 calls)
     ffts         :      3.55s CPU      2.62s WALL (    1266 calls)
                                        0.96s GPU  (    1242 calls)
     fftw         :      0.10s CPU      0.43s WALL (     212 calls)
                                        0.43s GPU  (     212 calls)
     interpolate  :      8.83s CPU      5.47s WALL (      24 calls)
 
     Parallel routines
 
     PWSCF        :     29.70s CPU     25.00s WALL

 
   This run was terminated on:  10:49:14  15Nov2025            

=------------------------------------------------------------------------------=
   JOB DONE.
=------------------------------------------------------------------------------=
