108
Lattice="19.618430826 0.0 0.0 0.0 16.717448465 0.0 0.0 0.0 20.00000886" Properties=species:S:1:pos:R:3:forces:R:3:magmoms:R:1 energy=-94788.12885475438 free_energy=-94788.12885475438 stress="3.580814699277862e-05 -0.0017894891920237316 1.8363152303989035e-06 -0.0017894891920237316 -5.6007614527166554e-05 4.958051122077039e-05 1.8363152303989035e-06 4.958051122077039e-05 0.00035808146992778614" pbc="T T T"
S       19.59235095       3.68392061      19.94659501       0.00541089       0.01119895       0.00225460       0.00000000
S        1.63773558       0.87011107      19.83886620       0.00148353       0.00307710       0.00074408       0.00000000
S       -0.01476843       9.30925178       0.25087295      -0.01262335       0.00895747       0.00503576      -0.00000000
S        1.56135769       6.53957623       0.19199746       0.00025814       0.00027948      -0.00285547      -0.00000000
S       19.69975687      14.87767921      19.86538048      -0.00219778       0.00175838       0.01263132      -0.00000000
S        1.67349241      12.08796254      -0.10493863       0.01788382       0.01632265       0.01385593      -0.00000000
S        3.15039014       3.78490543       0.07161032      -0.01059192      -0.01283392      -0.00578550       0.00000000
S        4.86966302       0.93082362       0.26383054       0.00817379      -0.00875204       0.00941924       0.00000000
S        3.27588533       9.31690120      19.83378720       0.00104747       0.00351444      -0.00607937       0.00000000
S        4.87383381       6.57056225      19.79209130      -0.00467966       0.00322134      -0.00676663       0.00000000
S        3.36284971      14.75302338       0.08430410      -0.00347767       0.00161080       0.01175997       0.00000000
S        4.95872355      12.04074189       0.25075444      -0.00918449       0.01238089       0.01080198       0.00000000
S        6.51375972       3.68350510      -0.05903713       0.00656377       0.01152137       0.00233328       0.00000000
S        8.18021627       0.86943104      19.83523252       0.00080733       0.00287989       0.00079781       0.00000000
S        6.52548026       9.30918342       0.24640871      -0.01201451       0.00815734       0.00572199       0.00000000
S        8.10220882       6.53991992       0.18853718      -0.00074125      -0.00026997      -0.00292746      -0.00000000
S        6.62297681      14.87699344      19.85976567      -0.00269117       0.00149587       0.01368855       0.00000000
S        8.21592601      12.08773266      19.89292243       0.01684587       0.01563179       0.01419737       0.00000000
S        9.69193431       3.78516593      20.06979359      -0.01080583      -0.01240300      -0.00454160       0.00000000
S       11.41123212       0.93060265       0.26685587       0.00843990      -0.00908679       0.00986172       0.00000000
S        9.81814286       9.31743026      19.83377757       0.00130329       0.00322828      -0.00567185       0.00000000
S       11.41612885       6.57109455      19.79345702      -0.00583743       0.00312209      -0.00394356       0.00000000
S        9.90522388      14.75270090       0.08521016      -0.00372090       0.00032833       0.01106834       0.00000000
S       11.50015982      12.04151566       0.25522678      -0.01017051       0.01148358       0.00903743       0.00000000
S       13.05515782       3.68308192      -0.05457460       0.00577547       0.01202145       0.00234536       0.00000000
S       14.71954290       0.86959684      19.84250409       0.00037641       0.00305833       0.00018229      -0.00000000
S       13.06631835       9.31003758       0.25126311      -0.01404259       0.00724151       0.00468404      -0.00000000
S       14.64230643       6.54007649       0.19369623      -0.00082507       0.00010773      -0.00256185      -0.00000000
S       13.16352538      14.87747019      19.86686776      -0.00270223       0.00110686       0.01170495       0.00000000
S       14.75475085      12.08849845      -0.10053788       0.01736060       0.01703150       0.01374975      -0.00000000
S       16.23059831       3.78486426      20.07642875      -0.01027644      -0.01178697      -0.00703839       0.00000000
S       17.94848077       0.93122472       0.27029651       0.00875126      -0.00943235       0.00871655       0.00000000
S       16.35627692       9.31785400      19.83881018       0.00102278       0.00337740      -0.00703557      -0.00000000
S       17.95345212       6.57102348      19.79733741      -0.00552273       0.00252174      -0.00664913      -0.00000000
S       16.44271177      14.75353331       0.09086936      -0.00288169       0.00085104       0.00986275       0.00000000
S       18.03720174      12.04168879       0.25700205      -0.00935624       0.01201297       0.00935522       0.00000000
Mo       0.23890618      16.61315354       1.55148694       0.00372939      -0.00072197       0.00690136      -0.00000000
Mo       1.56896712       2.47404638       1.57931202      -0.00038489       0.00529262      -0.01195743      -0.00000000
Mo      19.25836904       5.52355511       1.47007512      -0.00196304       0.00461410      -0.00522577      -0.00000000
Mo       1.89166899       8.51171038       1.66497808      -0.00357075      -0.00403072      -0.00912125      -0.00000000
Mo       0.33350108      11.27950540       1.69097880       0.00407854      -0.00808818      -0.00240115      -0.00000000
Mo       1.51162392      13.85606925       1.54578991       0.00174244       0.01810725       0.01791570      -0.00000000
Mo       2.99543897      16.56002042       1.52353520       0.01221377      -0.00357023       0.00883405       0.00000000
Mo       4.84659312       3.10011491       1.48060687       0.00672832      -0.00705665       0.00400706      -0.00000000
Mo       3.43310941       5.79188970       1.60718533       0.00036304      -0.00286267      -0.00821056      -0.00000000
Mo       4.62989247       8.25530858       1.48491615      -0.00543480       0.00055999      -0.00585954      -0.00000000
Mo       3.07612715      10.99529057       1.51473111       0.00338409      -0.00336300       0.00345582      -0.00000000
Mo       5.27909263      14.04819136       1.62688283      -0.00225691      -0.01019854       0.00665556      -0.00000000
Mo       6.77837125      16.61266450       1.54581599       0.00333626      -0.00042243       0.00752228      -0.00000000
Mo       8.10795560       2.47406438       1.57476356      -0.00075642       0.00475166      -0.01005404      -0.00000000
Mo       6.17931539       5.52299217       1.46458957      -0.00203194       0.00555333      -0.00404357       0.00000000
Mo       8.43094061       8.51157249       1.66250046      -0.00307530      -0.00431354      -0.00882968      -0.00000000
Mo       6.87298136      11.27926344       1.68682373       0.00422715      -0.00763592      -0.00247957      -0.00000000
Mo       8.05104303      13.85613731       1.54299109       0.00245386       0.01724542       0.01834636      -0.00000000
Mo       9.53496996      -0.15761603       1.52293892       0.01220683      -0.00205997       0.00870447       0.00000000
Mo      11.38531301       3.10049102       1.48214098       0.00732379      -0.00735618       0.00480051      -0.00000000
Mo       9.97229737       5.79209874       1.60611583       0.00057978      -0.00351393      -0.00795859      -0.00000000
Mo      11.16955804       8.25534103       1.48666866      -0.00551476       0.00188102      -0.00574950      -0.00000000
Mo       9.61586910      10.99518076       1.51517744       0.00263821      -0.00179206       0.00327301      -0.00000000
Mo      11.81829901      14.04864800       1.63265890      -0.00219906      -0.00919041       0.00442410      -0.00000000
Mo      13.31783737      -0.10453520       1.55282313       0.00348667       0.00112511       0.00658100      -0.00000000
Mo      14.64781190       2.47412616       1.58208284      -0.00029953       0.00539315      -0.01183247      -0.00000000
Mo      12.71880511       5.52300476       1.46775366      -0.00086929       0.00476014      -0.00317788       0.00000000
Mo      14.97050275       8.51179719       1.66800511      -0.00364120      -0.00318071      -0.00920918      -0.00000000
Mo      13.41241957      11.27947859       1.69309113       0.00368053      -0.00642159      -0.00334912      -0.00000000
Mo      14.59061466      13.85663574       1.55033164       0.00120739       0.01617404       0.01673531      -0.00000000
Mo      16.07428507      -0.15695792       1.52980810       0.01240840      -0.00344271       0.00680725      -0.00000000
Mo      17.92600608       3.10060792       1.48669496       0.00653523      -0.00752382       0.00473700      -0.00000000
Mo      16.51198530       5.79228173       1.61148429       0.00045946      -0.00266186      -0.00807146      -0.00000000
Mo      17.70893337       8.25568358       1.49024711      -0.00554613       0.00071528      -0.00620793       0.00000000
Mo      16.15516224      10.99569427       1.52042011       0.00316888      -0.00370907       0.00235667       0.00000000
Mo      18.35808708      14.04880461       1.63384086      -0.00352910      -0.00993371       0.00485244      -0.00000000
S       19.53635645       1.83323405       3.06074194      -0.01361811      -0.00139739      -0.00462619       0.00000000
S        1.56307455       4.64916275       2.82699265       0.00328741       0.00395101      -0.01713177       0.00000000
S       19.60698400       7.45153560       2.92372462      -0.00200238      -0.00093974      -0.01250790      -0.00000000
S        1.67825738      10.21754042       3.34219478      -0.00801027      -0.00484576      -0.00478791       0.00000000
S        0.06882671      13.00484571       3.31524168       0.00526948      -0.00409294       0.00184040       0.00000000
S        1.64382995      15.69736848       3.24973858       0.00724537       0.00273025       0.01060554      -0.00000000
S        3.26631771       1.83419935       3.02938061       0.00931151      -0.00507819      -0.00820285       0.00000000
S        4.79823318       4.66833315       3.25024516      -0.00209596       0.00192678      -0.00820156       0.00000000
S        3.24914257       7.43667704       3.31192089      -0.01473679      -0.00187922      -0.00773902      -0.00000000
S        4.95996504      10.21950603       2.93242866       0.00196895      -0.00914747      -0.00450612       0.00000000
S        3.39750412      13.01099100       2.91696513      -0.00374404      -0.00312955       0.00119042      -0.00000000
S        4.91915726      15.86344347       3.04857229       0.00646478      -0.00614828       0.00903049       0.00000000
S        6.45629935       1.83260024       3.05483217      -0.01355383      -0.00084975      -0.00261944       0.00000000
S        8.10096019       4.64891122       2.82298984       0.00366871       0.00419398      -0.01605037       0.00000000
S        6.52701143       7.45100362       2.91882102      -0.00141848      -0.00147196      -0.01206053       0.00000000
S        8.21498047      10.21692988       3.33994951      -0.00781770      -0.00373453      -0.00506507       0.00000000
S        6.60626411      13.00495215       3.31032850       0.00441947      -0.00440276       0.00148558       0.00000000
S        8.18023419      15.69765391       3.24677166       0.00852886       0.00170901       0.01078835       0.00000000
S        9.80292051       1.83470326       3.02813321       0.01124369      -0.00443310      -0.00712684       0.00000000
S       11.33476634       4.66886330       3.25144074      -0.00133235       0.00132309      -0.00772359       0.00000000
S        9.78584331       7.43630527       3.31121383      -0.01412924      -0.00177843      -0.00798842       0.00000000
S       11.49774575      10.21900441       2.93579112       0.00139945      -0.00994991      -0.00664476      -0.00000000
S        9.93444958      13.01084670       2.91836151      -0.00427009      -0.00330592       0.00026842       0.00000000
S       11.45590570      15.86439260       3.05300668       0.00864405      -0.00707336       0.00699366       0.00000000
S       12.99400569       1.83405982       3.06015036      -0.01374435      -0.00247546      -0.00377232       0.00000000
S       14.64006421       4.64973946       2.82880088       0.00325553       0.00371884      -0.01776812       0.00000000
S       13.06536929       7.45079430       2.92271691      -0.00171210      -0.00062015      -0.01331574      -0.00000000
S       14.75481568      10.21684166       3.34591340      -0.00740529      -0.00365148      -0.00555873       0.00000000
S       13.14450809      13.00491903       3.31688719       0.00535766      -0.00423075       0.00049288       0.00000000
S       14.71992912      15.69803109       3.25431296       0.00739578       0.00164679       0.00848104       0.00000000
S       16.34357161       1.83519063       3.03456483       0.01061197      -0.00469432      -0.00805347       0.00000000
S       17.87649974       4.66929909       3.25574314      -0.00116214       0.00108346      -0.00801207       0.00000000
S       16.32646584       7.43682404       3.31624383      -0.01356437      -0.00239113      -0.00752922       0.00000000
S       18.03933852      10.21956477       2.93801393       0.00177792      -0.00891350      -0.00532630      -0.00000000
S       16.47579730      13.01115283       2.92336083      -0.00466424      -0.00265544      -0.00091094      -0.00000000
S       17.99833313      15.86414165       3.05549555       0.00709162      -0.00705048       0.00692707       0.00000000
