108
Lattice="19.194455933359862 0.0 0.0 0.0 16.622878699687977 0.0 0.0 0.0 20.000008859971107" Properties=species:S:1:pos:R:3:forces:R:3:magmoms:R:1 energy=-94787.5008569679 free_energy=-94787.5008569679 pbc="T T T"
S       19.16428463       3.67513746      19.92389503      -0.01104983       0.00549008       0.00162031       0.00000000
S        1.60803885       0.88216560      19.82063112      -0.00396104      -0.00654269       0.01007770       0.00000000
S       -0.00952502       9.26396353       0.22932150      -0.01006510       0.00187639       0.00189773       0.00000000
S        1.53162419       6.50074131       0.17274669      -0.00874432      -0.00182368      -0.00922743       0.00000000
S       19.26093695      14.81036557      19.83944093      -0.00801670      -0.00474137       0.01489826       0.00000000
S        1.64276393      12.03467641      -0.11029368       0.00644138       0.01017720       0.01820701       0.00000000
S        3.07910739       3.77068410       0.05282479       0.01140721       0.00178512       0.00182548       0.00000000
S        4.76558477       0.94031984       0.22319007      -0.00375715       0.00036664       0.00211756       0.00000000
S        3.20841542       9.25740887      19.82591223      -0.00418781      -0.00007379      -0.00018281       0.00000000
S        4.77069673       6.52451197      19.79324537      -0.00102330      -0.00135523      -0.00412636       0.00000000
S        3.28469608      14.68451534       0.03667236      -0.00452000      -0.01578709      -0.00128041       0.00000000
S        4.85408604      11.98109379       0.20587620       0.00098242       0.00042038       0.00930791       0.00000000
S        6.36733831       3.67722207      -0.08339526      -0.00568085      -0.00465987       0.00602949       0.00000000
S        8.00732012       0.87839265      19.81495716      -0.00784598      -0.00655888       0.01542199       0.00000000
S        6.38568609       9.26373067       0.22459993       0.00038747      -0.00353115       0.00079499       0.00000000
S        7.92803227       6.50116680       0.16967146       0.01285654       0.00322468      -0.01175920       0.00000000
S        6.46375273      14.80679652      19.83352832       0.00338769       0.00654680       0.01381814       0.00000000
S        8.04138213      12.03505194      19.88650631       0.00217053       0.00195404       0.01266088       0.00000000
S        9.47869396       3.77159969      20.04750700       0.00630023       0.00576133      -0.00066077       0.00000000
S       11.16524360       0.93656708       0.22498436      -0.00286524       0.01123418       0.01025099       0.00000000
S        9.60611287       9.25895255      19.82526031       0.00506816       0.00315860      -0.01144809       0.00000000
S       11.16992453       6.52627150      19.79420090       0.00434079      -0.00517075      -0.01647897       0.00000000
S        9.68497024      14.68045397       0.03922458       0.00210393      -0.00302927       0.00526125       0.00000000
S       11.25395047      11.98333750       0.21611951       0.00938581      -0.00849030      -0.00772385       0.00000000
S       12.76892626       3.67596328      -0.07706513      -0.00650463      -0.00401889      -0.00540163       0.00000000
S       14.40466781       0.87794270      19.82633680       0.00286678       0.00238778       0.00371113       0.00000000
S       12.78653363       9.26477637       0.23063120       0.00428140       0.00638791       0.00536332       0.00000000
S       14.32834004       6.50219522       0.17552724       0.00371473       0.00020569      -0.00843502       0.00000000
S       12.86575590      14.80568187      19.84505448      -0.00838385       0.01225054       0.00871913       0.00000000
S       14.44133265      12.03666411      -0.10349457      -0.00378852      -0.00740966       0.01478384       0.00000000
S       15.87715098       3.77143540      20.05995754      -0.00647224      -0.00586649      -0.01723488       0.00000000
S       17.56031210       0.93844870       0.22973535       0.00093871       0.01092539       0.01077652       0.00000000
S       16.00451608       9.25989163      19.83084487      -0.00108963       0.00039106       0.00364942       0.00000000
S       17.56740384       6.52487179      19.79770462      -0.00185222      -0.01016229      -0.00227183       0.00000000
S       16.08207371      14.68107896       0.04720944      -0.00446858       0.00426520      -0.00207951       0.00000000
S       17.65200074      11.98222502       0.21602523       0.00193347      -0.00061835       0.00179720       0.00000000
Mo       0.22216234      16.52317899       1.54068137      -0.00731247       0.00063969       0.01388653      -0.00000000
Mo       1.52194673       2.48090135       1.56691764       0.00580838      -0.00338126      -0.00298865      -0.00000000
Mo      18.86149222       5.48328720       1.48921637      -0.00019592       0.00722866      -0.00941872      -0.00000000
Mo       1.84326356       8.45828456       1.66621803      -0.00219649      -0.00411865      -0.00844016      -0.00000000
Mo       0.31845100      11.23231037       1.68717845      -0.01864050      -0.00900297       0.00747548      -0.00000000
Mo       1.48351538      13.81419705       1.54506726       0.00682576       0.00868416      -0.00490232      -0.00000000
Mo       2.94875386      16.46299949       1.51208763      -0.00573896      -0.00521857       0.01459924      -0.00000000
Mo       4.74815847       3.06528808       1.49903924      -0.00846921      -0.00584078      -0.00664939      -0.00000000
Mo       3.35599883       5.74088963       1.61589203       0.00794368       0.00109298      -0.00091943      -0.00000000
Mo       4.54789207       8.19345641       1.49502350      -0.00080450       0.00587266      -0.00989695      -0.00000000
Mo       3.02993172      10.92294179       1.51321167      -0.00128992       0.00430943      -0.00287167      -0.00000000
Mo       5.13545643      13.97665010       1.61116631       0.00559806       0.01169903       0.00689518      -0.00000000
Mo       6.61770835      16.52005696       1.53477987       0.00354658       0.01277607       0.00487198      -0.00000000
Mo       7.91884367       2.48004698       1.55834844       0.00164576       0.00202397       0.01239606      -0.00000000
Mo       6.06518091       5.48316184       1.48434615      -0.00507613       0.00675300       0.00271457      -0.00000000
Mo       8.23877988       8.45882511       1.66255212      -0.00175915      -0.00541886       0.00865279      -0.00000000
Mo       6.71222766      11.23145405       1.68145796      -0.00712556       0.00044120       0.00321311      -0.00000000
Mo       7.87901791      13.81269338       1.54235826      -0.00068957      -0.00154138       0.00606060      -0.00000000
Mo       9.34408894      -0.16120953       1.51100583       0.00215021      -0.00742200       0.00885642      -0.00000000
Mo      11.14200113       3.06494402       1.49692088       0.00055562      -0.00495606      -0.00117525      -0.00000000
Mo       9.75396823       5.74171890       1.61427082      -0.01207647      -0.00020286      -0.01766939      -0.00000000
Mo      10.94468816       8.19603272       1.49477045      -0.00402660      -0.00316554      -0.01166972      -0.00000000
Mo       9.42429664      10.92514885       1.51239770      -0.00062709      -0.00081427       0.01289408      -0.00000000
Mo      11.53348692      13.97889161       1.62097812       0.01550272      -0.00127655       0.00924414      -0.00000000
Mo      13.01654923      -0.10146467       1.54464284      -0.00292154      -0.00596984       0.00337766      -0.00000000
Mo      14.31648675       2.47935370       1.57027380       0.00455548      -0.00077596      -0.00416082      -0.00000000
Mo      12.46192325       5.48437648       1.48630588      -0.00108012      -0.00292437       0.00285598      -0.00000000
Mo      14.63934196       8.45851304       1.67029630      -0.00860034       0.00091351      -0.00928991      -0.00000000
Mo      13.11190935      11.23164250       1.69105480       0.00320179      -0.00135137      -0.00470332      -0.00000000
Mo      14.27950107      13.81231178       1.55318598      -0.00541551       0.00428834       0.00990466      -0.00000000
Mo      15.74318229      -0.16073464       1.52079937       0.00280327      -0.00235616       0.00051088      -0.00000000
Mo      17.54415955       3.06503631       1.50521686      -0.00208825      -0.00238367      -0.00014732      -0.00000000
Mo      16.15211387       5.74176918       1.62105675       0.00554998       0.00453003      -0.01095264      -0.00000000
Mo      17.34455228       8.19496934       1.49769531      -0.00136628       0.00488638      -0.00097985      -0.00000000
Mo      15.82532394      10.92499059       1.52001453      -0.00286832      -0.00502316       0.00004088      -0.00000000
Mo      17.93480676      13.97941977       1.61912944      -0.00257753      -0.00039261       0.00649538      -0.00000000
S       19.10314513       1.80697311       3.08290290       0.00051473       0.00261944      -0.00366536       0.00000000
S        1.53758631       4.60225880       2.87402251      -0.00203117       0.01014120       0.00029645       0.00000000
S       19.18693051       7.40052586       2.96541373      -0.00891813       0.00395693      -0.00054636       0.00000000
S        1.65094766      10.16084283       3.34660442      -0.00395950      -0.00627966      -0.00374867       0.00000000
S        0.06276481      12.94251079       3.31685944      -0.00084461      -0.00966786       0.00883302       0.00000000
S        1.60962668      15.61688098       3.26130658       0.00556875      -0.00235539       0.00412559       0.00000000
S        3.18973865       1.80515296       3.04488149       0.00979745       0.00168690      -0.00612514       0.00000000
S        4.70606088       4.62240817       3.27862606      -0.00233199      -0.00019463      -0.00935753       0.00000000
S        3.18061191       7.37998171       3.32812129       0.00922563      -0.00138043      -0.01372121       0.00000000
S        4.85726244      10.15385968       2.96359530       0.00111072      -0.01363096      -0.00911328       0.00000000
S        3.31919123      12.93035557       2.93755872       0.00209596      -0.00366254      -0.00659591       0.00000000
S        4.80985390      15.76712850       3.07466732       0.00197486       0.01348312      -0.00121536       0.00000000
S        6.30641303       1.80565931       3.07524308       0.00039878       0.00490926      -0.00395461       0.00000000
S        7.93524992       4.60126169       2.86899211      -0.01013375       0.00919529      -0.00368362       0.00000000
S        6.38774041       7.40109393       2.96382772       0.00186482      -0.00511418      -0.01380682       0.00000000
S        8.04216643      10.16139397       3.34265447       0.00978845      -0.01323373      -0.00033630       0.00000000
S        6.45369748      12.93962073       3.31178702       0.01106834       0.00424463       0.00120559       0.00000000
S        8.00205253      15.61532799       3.25842463       0.01108223       0.00134289       0.00228777       0.00000000
S        9.58496720       1.80459867       3.04013225      -0.00339463       0.00459636      -0.00239833       0.00000000
S       11.09883160       4.62151839       3.27685414       0.00441407      -0.00046588      -0.00032859       0.00000000
S        9.57716488       7.38182728       3.32469623      -0.00274568      -0.00435725       0.00298608       0.00000000
S       11.25266715      10.15327023       2.96414052       0.00208851      -0.00519826       0.00486504       0.00000000
S        9.71263103      12.93017456       2.93971056       0.00636219      -0.00278990      -0.00434619       0.00000000
S       11.20321207      15.77146464       3.07958680       0.00357589      -0.00364197       0.00544945       0.00000000
S       12.69885959       1.80718178       3.08099068       0.00924389       0.01159130       0.00388828       0.00000000
S       14.32982452       4.60278330       2.87594283       0.00697000       0.01028158      -0.00470743       0.00000000
S       12.78414499       7.39991119       2.96619146       0.00574282       0.00621796      -0.01199548       0.00000000
S       14.44406559      10.15983440       3.35109643      -0.00266263      -0.00195198      -0.00191496       0.00000000
S       12.85338032      12.94011559       3.32212442      -0.00394664       0.00373324      -0.00650258       0.00000000
S       14.40169731      15.61639768       3.26878943       0.00803573       0.00123130       0.00267832       0.00000000
S       15.98400708       1.80661843       3.04964511       0.00450612      -0.00384663       0.00172701       0.00000000
S       17.50086407       4.62365155       3.28398215       0.00503833      -0.00437447      -0.01212944       0.00000000
S       15.97962393       7.38263277       3.33206024      -0.00648021      -0.00555024      -0.01503144       0.00000000
S       17.65746821      10.15316429       2.96673286      -0.00694352      -0.00449352      -0.00328690       0.00000000
S       16.11785044      12.93033802       2.94581472      -0.00202757       0.00113694      -0.00850675       0.00000000
S       17.60812890      15.77088922       3.08086991      -0.00108012       0.00024785       0.00588551       0.00000000
