
     Program PWSCF v.7.3.1 starts on 12Nov2025 at 21:26:15 

     This program is part of the open-source Quantum ESPRESSO suite
     for quantum simulation of materials; please cite
         "P. Giannozzi et al., J. Phys.:Condens. Matter 21 395502 (2009);
         "P. Giannozzi et al., J. Phys.:Condens. Matter 29 465901 (2017);
         "P. Giannozzi et al., J. Chem. Phys. 152 154105 (2020);
          URL http://www.quantum-espresso.org", 
     in publications or presentations arising from this work. More details at
     http://www.quantum-espresso.org/quote

     Parallel version (MPI & OpenMP), running on      64 processor cores
     Number of MPI processes:                 8
     Threads/MPI process:                     8

     MPI processes distributed on     2 nodes
     501939 MiB available memory on the printing compute node when the environment starts
 
     Waiting for input...
     Reading input from standard input

     Current dimensions of program PWSCF are:
     Max number of different atomic species (ntypx) = 10
     Max number of k-points (npk) =  40000
     Max angular momentum in pseudopotentials (lmaxx) =  4
     file O.pbe-n-kjpaw_psl.1.0.0.UPF: wavefunction(s)  2S 2P renormalized
     file H.pbe-kjpaw_psl.1.0.0.UPF: wavefunction(s)  1S renormalized

     gamma-point specific algorithms are used
 
     K-points division:     npool     =       2
     R & G space division:  proc/nbgrp/npool/nimage =       4
     Subspace diagonalization in iterative solution of the eigenvalue problem:
     a serial algorithm will be used

 
     Parallelization info
     --------------------
     sticks:   dense  smooth     PW     G-vecs:    dense   smooth      PW
     Min        9062    4529   1130              1454466   514179   64282
     Max        9064    4530   1132              1454472   514186   64284
     Sum       36253   18119   4523              5817877  2056729  257131
 
     Using Slab Decomposition
 


     bravais-lattice index     =            0
     lattice parameter (alat)  =      36.2723  a.u.
     unit-cell volume          =   43063.4511 (a.u.)^3
     number of atoms/cell      =          108
     number of atomic types    =            4
     number of electrons       =       936.00
     number of Kohn-Sham states=          562
     kinetic-energy cutoff     =      50.0000  Ry
     charge density cutoff     =     400.0000  Ry
     scf convergence threshold =      1.0E-06
     mixing beta               =       0.2000
     number of iterations used =            8  local-TF  mixing
     energy convergence thresh.=      1.0E-04
     force convergence thresh. =      1.0E-03
     press convergence thresh. =      5.0E-01
     Exchange-correlation= SLA  PW   PBX  PBC
                           (   1   4   3   4   0   0   0)
     nstep                     =        10000


     GPU acceleration is ACTIVE.  4 visible GPUs per MPI rank
     GPU-aware MPI enabled


     celldm(1)=  36.272265  celldm(2)=   0.000000  celldm(3)=   0.000000
     celldm(4)=   0.000000  celldm(5)=   0.000000  celldm(6)=   0.000000

     crystal axes: (cart. coord. in units of alat)
               a(1) = (   1.000000   0.000000   0.000000 )  
               a(2) = (   0.000000   0.866025   0.000000 )  
               a(3) = (   0.000000   0.000000   1.041968 )  

     reciprocal axes: (cart. coord. in units 2 pi/alat)
               b(1) = (  1.000000  0.000000  0.000000 )  
               b(2) = (  0.000000  1.154701  0.000000 )  
               b(3) = (  0.000000  0.000000  0.959722 )  


     PseudoPot. # 1 for Mo read from file:
     /leonardo/home/userexternal/apacini0/PSEUDO/Mo.pbe-spn-rrkjus_psl.0.2.UPF
     MD5 check sum: fc6921ed78563293cf4f0ffad66b730e
     Pseudo is Ultrasoft + core correction, Zval = 14.0
     Generated using "atomic" code by A. Dal Corso  v.5.0.2 svn rev. 9415
     Using radial grid of 1229 points,  6 beta functions with: 
                l(1) =   0
                l(2) =   0
                l(3) =   1
                l(4) =   1
                l(5) =   2
                l(6) =   2
     Q(r) pseudized with 0 coefficients 


     PseudoPot. # 2 for S  read from file:
     /leonardo/home/userexternal/apacini0/PSEUDO/S.pbe-n-rrkjus_psl.0.1.UPF
     MD5 check sum: bcce8fa2324dad47c8296339772e3939
     Pseudo is Ultrasoft + core correction, Zval =  6.0
     Generated using "atomic" code by A. Dal Corso  v.5.0.2 svn rev. 9415
     Using radial grid of 1151 points,  4 beta functions with: 
                l(1) =   0
                l(2) =   0
                l(3) =   1
                l(4) =   1
     Q(r) pseudized with 0 coefficients 


     PseudoPot. # 3 for O  read from file:
     /leonardo/home/userexternal/apacini0/PSEUDO/O.pbe-n-kjpaw_psl.1.0.0.UPF
     MD5 check sum: e99d9cef9b487d1ca56f5b95ecd0fd7a
     Pseudo is Projector augmented-wave + core cor, Zval =  6.0
     Generated using &quot;atomic&quot; code by A. Dal Corso  v.6.3
     Shape of augmentation charge: PSQ
     Using radial grid of 1095 points,  4 beta functions with: 
                l(1) =   0
                l(2) =   0
                l(3) =   1
                l(4) =   1
     Q(r) pseudized with 0 coefficients 


     PseudoPot. # 4 for H  read from file:
     /leonardo/home/userexternal/apacini0/PSEUDO/H.pbe-kjpaw_psl.1.0.0.UPF
     MD5 check sum: d81a744832360e4a8af0b0b5b123bc2a
     Pseudo is Projector augmented-wave, Zval =  1.0
     Generated using &quot;atomic&quot; code by A. Dal Corso  v.6.3MaX
     Shape of augmentation charge: PSQ
     Using radial grid of  929 points,  2 beta functions with: 
                l(1) =   0
                l(2) =   0
     Q(r) pseudized with 0 coefficients 


     atomic species   valence    mass     pseudopotential
     Mo               14.00    95.95000     Mo( 1.00)
     S                 6.00    32.06500     S ( 1.00)
     O                 6.00    15.99900     O ( 1.00)
     H                 1.00     1.00800     H ( 1.00)

     Starting magnetic structure 
     atomic species   magnetization
     Mo              0.200
     S               0.200
     O               0.200
     H               0.200

     No symmetry found



   Cartesian axes

     site n.     atom                  positions (alat units)
         1        S      tau(   1) = (   0.9984281   0.1914687   1.0380026  )
         2        S      tau(   2) = (   0.0837762   0.0459594   1.0326227  )
         3        S      tau(   3) = (  -0.0004962   0.4826375   0.0119473  )
         4        S      tau(   4) = (   0.0797951   0.3386781   0.0089998  )
         5        S      tau(   5) = (   1.0034636   0.7715960   1.0336027  )
         6        S      tau(   6) = (   0.0855853   0.6269871  -0.0057461  )
         7        S      tau(   7) = (   0.1604165   0.1964465   0.0027521  )
         8        S      tau(   8) = (   0.2482792   0.0489891   0.0116278  )
         9        S      tau(   9) = (   0.1671532   0.4822960   1.0328978  )
        10        S      tau(  10) = (   0.2485456   0.3399165   1.0311960  )
        11        S      tau(  11) = (   0.1711273   0.7650394   0.0019106  )
        12        S      tau(  12) = (   0.2528900   0.6241955   0.0107258  )
        13        S      tau(  13) = (   0.3317280   0.1915773  -0.0043448  )
        14        S      tau(  14) = (   0.4171684   0.0457628   1.0323271  )
        15        S      tau(  15) = (   0.3326839   0.4826253   0.0117013  )
        16        S      tau(  16) = (   0.4130376   0.3387002   0.0088396  )
        17        S      tau(  17) = (   0.3367510   0.7714101   1.0332946  )
        18        S      tau(  18) = (   0.4189430   0.6270067   1.0360547  )
        19        S      tau(  19) = (   0.4938246   0.1964942   1.0444426  )
        20        S      tau(  20) = (   0.5816911   0.0487936   0.0117213  )
        21        S      tau(  21) = (   0.5004629   0.4823764   1.0328639  )
        22        S      tau(  22) = (   0.5819349   0.3400082   1.0312457  )
        23        S      tau(  23) = (   0.5045712   0.7648278   0.0020435  )
        24        S      tau(  24) = (   0.5863126   0.6243124   0.0112595  )
        25        S      tau(  25) = (   0.6652403   0.1915117  -0.0040150  )
        26        S      tau(  26) = (   0.7504598   0.0457394   1.0329200  )
        27        S      tau(  27) = (   0.6661576   0.4826798   0.0120155  )
        28        S      tau(  28) = (   0.7464833   0.3387538   0.0091447  )
        29        S      tau(  29) = (   0.6702850   0.7713520   1.0338951  )
        30        S      tau(  30) = (   0.7523700   0.6270907  -0.0053919  )
        31        S      tau(  31) = (   0.8271738   0.1964857   1.0450912  )
        32        S      tau(  32) = (   0.9148638   0.0488917   0.0119688  )
        33        S      tau(  33) = (   0.8338093   0.4824253   1.0331548  )
        34        S      tau(  34) = (   0.9152332   0.3399352   1.0314283  )
        35        S      tau(  35) = (   0.8378499   0.7648604   0.0024595  )
        36        S      tau(  36) = (   0.9196406   0.6242545   0.0112546  )
        37        Mo     tau(  37) = (   0.0115743   0.8608308   0.0802670  )
        38        Mo     tau(  38) = (   0.0792910   0.1292509   0.0816339  )
        39        Mo     tau(  39) = (   0.9826531   0.2856704   0.0775858  )
        40        Mo     tau(  40) = (   0.0960310   0.4406629   0.0868073  )
        41        Mo     tau(  41) = (   0.0165908   0.5851851   0.0878993  )
        42        Mo     tau(  42) = (   0.0772887   0.7196972   0.0804955  )
        43        Mo     tau(  43) = (   0.1536253   0.8576956   0.0787773  )
        44        Mo     tau(  44) = (   0.2473713   0.1596965   0.0780975  )
        45        Mo     tau(  45) = (   0.1748421   0.2990910   0.0841854  )
        46        Mo     tau(  46) = (   0.2369378   0.4268658   0.0778883  )
        47        Mo     tau(  47) = (   0.1578545   0.5690675   0.0788359  )
        48        Mo     tau(  48) = (   0.2675489   0.7281608   0.0839391  )
        49        Mo     tau(  49) = (   0.3447719   0.8606682   0.0799595  )
        50        Mo     tau(  50) = (   0.4125589   0.1292064   0.0811874  )
        51        Mo     tau(  51) = (   0.3159861   0.2856638   0.0773320  )
        52        Mo     tau(  52) = (   0.4292271   0.4406911   0.0866163  )
        53        Mo     tau(  53) = (   0.3496962   0.5851405   0.0876012  )
        54        Mo     tau(  54) = (   0.4104840   0.7196189   0.0803544  )
        55        Mo     tau(  55) = (   0.4868119  -0.0083988   0.0787210  )
        56        Mo     tau(  56) = (   0.5804802   0.1596786   0.0779871  )
        57        Mo     tau(  57) = (   0.5081659   0.2991342   0.0841009  )
        58        Mo     tau(  58) = (   0.5702005   0.4270000   0.0778751  )
        59        Mo     tau(  59) = (   0.4909906   0.5691825   0.0787935  )
        60        Mo     tau(  60) = (   0.6008759   0.7282776   0.0844503  )
        61        Mo     tau(  61) = (   0.6781411  -0.0052861   0.0804734  )
        62        Mo     tau(  62) = (   0.7458657   0.1291703   0.0818087  )
        63        Mo     tau(  63) = (   0.6492460   0.2857271   0.0774341  )
        64        Mo     tau(  64) = (   0.7626860   0.4406748   0.0870197  )
        65        Mo     tau(  65) = (   0.6831092   0.5851503   0.0881012  )
        66        Mo     tau(  66) = (   0.7439388   0.7195990   0.0809185  )
        67        Mo     tau(  67) = (   0.8201942  -0.0083740   0.0792312  )
        68        Mo     tau(  68) = (   0.9140222   0.1596834   0.0784194  )
        69        Mo     tau(  69) = (   0.8414989   0.2991369   0.0844544  )
        70        Mo     tau(  70) = (   0.9036230   0.4269446   0.0780275  )
        71        Mo     tau(  71) = (   0.8244737   0.5691743   0.0791903  )
        72        Mo     tau(  72) = (   0.9343743   0.7283051   0.0843540  )
        73        S      tau(  73) = (   0.9952429   0.0941404   0.1606142  )
        74        S      tau(  74) = (   0.0801058   0.2397702   0.1497319  )
        75        S      tau(  75) = (   0.9996079   0.3855554   0.1544932  )
        76        S      tau(  76) = (   0.0860117   0.5293634   0.1743527  )
        77        S      tau(  77) = (   0.0032699   0.6742838   0.1728030  )
        78        S      tau(  78) = (   0.0838589   0.8136142   0.1699088  )
        79        S      tau(  79) = (   0.1661802   0.0940455   0.1586334  )
        80        S      tau(  80) = (   0.2451781   0.2408200   0.1708111  )
        81        S      tau(  81) = (   0.1657047   0.3844851   0.1733897  )
        82        S      tau(  82) = (   0.2530555   0.5289996   0.1543985  )
        83        S      tau(  83) = (   0.1729245   0.6736505   0.1530420  )
        84        S      tau(  84) = (   0.2505856   0.8214418   0.1601852  )
        85        S      tau(  85) = (   0.3285539   0.0940719   0.1602152  )
        86        S      tau(  86) = (   0.4134136   0.2397183   0.1494698  )
        87        S      tau(  87) = (   0.3327909   0.3855850   0.1544106  )
        88        S      tau(  88) = (   0.4189838   0.5293921   0.1741469  )
        89        S      tau(  89) = (   0.3362272   0.6741332   0.1725387  )
        90        S      tau(  90) = (   0.4168939   0.8135332   0.1697586  )
        91        S      tau(  91) = (   0.4993612   0.0940167   0.1583860  )
        92        S      tau(  92) = (   0.5782311   0.2407736   0.1707188  )
        93        S      tau(  93) = (   0.4989547   0.3845812   0.1732113  )
        94        S      tau(  94) = (   0.5862457   0.5289689   0.1544269  )
        95        S      tau(  95) = (   0.5060123   0.6736411   0.1531541  )
        96        S      tau(  96) = (   0.5836692   0.8216677   0.1604415  )
        97        S      tau(  97) = (   0.6615900   0.0941512   0.1605146  )
        98        S      tau(  98) = (   0.7465606   0.2397975   0.1498320  )
        99        S      tau(  99) = (   0.6660332   0.3855234   0.1545338  )
       100        S      tau( 100) = (   0.7525124   0.5293109   0.1745867  )
       101        S      tau( 101) = (   0.6696403   0.6741590   0.1730773  )
       102        S      tau( 102) = (   0.7503051   0.8135890   0.1702986  )
       103        S      tau( 103) = (   0.8327408   0.0941219   0.1588816  )
       104        S      tau( 104) = (   0.9117666   0.2408847   0.1710901  )
       105        S      tau( 105) = (   0.8325125   0.3846232   0.1735949  )
       106        S      tau( 106) = (   0.9199254   0.5289634   0.1545620  )
       107        S      tau( 107) = (   0.8397138   0.6736496   0.1534722  )
       108        S      tau( 108) = (   0.9173549   0.8216377   0.1605083  )

     --------------------------------------------
     DFT-D3 Dispersion Correction (3-body terms):
     --------------------------------------------
       Reference C6 values for interpolation: 

         atom   Coordination number   C6
         H          0.912             6.05
         H          0.000            15.18
         O          0.000            31.01
         O          0.993            25.63
         O          1.989            20.74
         S          0.000           268.01
         S          0.995           261.99
         S          1.990           251.62
         Mo         0.000          1691.79
         Mo         1.942          1004.01
         Mo        11.056           674.22

       Values used:

         atom   Coordination number  R0_AB[au]  C6      C8
         S          3.498            3.128    251.62  12327.25
         S          3.508            3.128    251.62  12327.25
         S          3.671            3.128    251.62  12327.25
         S          3.631            3.128    251.62  12327.25
         S          3.561            3.128    251.62  12327.25
         S          3.566            3.128    251.62  12327.25
         S          3.555            3.128    251.62  12327.25
         S          3.595            3.128    251.62  12327.25
         S          3.538            3.128    251.62  12327.25
         S          3.522            3.128    251.62  12327.25
         S          3.576            3.128    251.62  12327.25
         S          3.663            3.128    251.62  12327.25
         S          3.496            3.128    251.62  12327.25
         S          3.504            3.128    251.62  12327.25
         S          3.671            3.128    251.62  12327.25
         S          3.630            3.128    251.62  12327.25
         S          3.560            3.128    251.62  12327.25
         S          3.567            3.128    251.62  12327.25
         S          3.550            3.128    251.62  12327.25
         S          3.593            3.128    251.62  12327.25
         S          3.535            3.128    251.62  12327.25
         S          3.520            3.128    251.62  12327.25
         S          3.578            3.128    251.62  12327.25
         S          3.667            3.128    251.62  12327.25
         S          3.496            3.128    251.62  12327.25
         S          3.509            3.128    251.62  12327.25
         S          3.670            3.128    251.62  12327.25
         S          3.630            3.128    251.62  12327.25
         S          3.565            3.128    251.62  12327.25
         S          3.570            3.128    251.62  12327.25
         S          3.555            3.128    251.62  12327.25
         S          3.595            3.128    251.62  12327.25
         S          3.537            3.128    251.62  12327.25
         S          3.520            3.128    251.62  12327.25
         S          3.582            3.128    251.62  12327.25
         S          3.666            3.128    251.62  12327.25
         Mo         9.934            3.547    674.22  77634.20
         Mo         9.281            3.547    674.22  77634.20
         Mo         9.269            3.547    674.22  77634.20
         Mo         9.666            3.547    674.22  77634.20
         Mo         9.560            3.547    674.22  77634.20
         Mo        10.257            3.547    674.22  77634.20
         Mo         9.457            3.547    674.22  77634.20
         Mo         9.245            3.547    674.22  77634.20
         Mo         9.783            3.547    674.22  77634.20
         Mo         9.709            3.547    674.22  77634.20
         Mo         9.519            3.547    674.21  77634.20
         Mo         9.368            3.547    674.22  77634.20
         Mo         9.936            3.547    674.22  77634.20
         Mo         9.284            3.547    674.22  77634.20
         Mo         9.271            3.547    674.22  77634.20
         Mo         9.666            3.547    674.22  77634.20
         Mo         9.567            3.547    674.22  77634.20
         Mo        10.261            3.547    674.22  77634.20
         Mo         9.456            3.547    674.22  77634.20
         Mo         9.243            3.547    674.22  77634.20
         Mo         9.782            3.547    674.22  77634.20
         Mo         9.704            3.547    674.22  77634.20
         Mo         9.519            3.547    674.22  77634.20
         Mo         9.361            3.547    674.22  77634.20
         Mo         9.933            3.547    674.22  77634.20
         Mo         9.272            3.547    674.22  77634.20
         Mo         9.266            3.547    674.22  77634.20
         Mo         9.663            3.547    674.22  77634.20
         Mo         9.558            3.547    674.22  77634.20
         Mo        10.258            3.547    674.22  77634.20
         Mo         9.454            3.547    674.22  77634.20
         Mo         9.240            3.547    674.22  77634.20
         Mo         9.780            3.547    674.22  77634.20
         Mo         9.704            3.547    674.22  77634.20
         Mo         9.517            3.547    674.22  77634.20
         Mo         9.361            3.547    674.22  77634.20
         S          3.576            3.128    251.62  12327.25
         S          3.586            3.128    251.62  12327.25
         S          3.614            3.128    251.62  12327.25
         S          3.504            3.128    251.62  12327.25
         S          3.546            3.128    251.62  12327.25
         S          3.577            3.128    251.62  12327.25
         S          3.577            3.128    251.62  12327.25
         S          3.503            3.128    251.62  12327.25
         S          3.525            3.128    251.62  12327.25
         S          3.641            3.128    251.62  12327.25
         S          3.642            3.128    251.62  12327.25
         S          3.625            3.128    251.62  12327.25
         S          3.578            3.128    251.62  12327.25
         S          3.588            3.128    251.62  12327.25
         S          3.612            3.128    251.62  12327.25
         S          3.506            3.128    251.62  12327.25
         S          3.549            3.128    251.62  12327.25
         S          3.577            3.128    251.62  12327.25
         S          3.583            3.128    251.62  12327.25
         S          3.505            3.128    251.62  12327.25
         S          3.525            3.128    251.62  12327.25
         S          3.639            3.128    251.62  12327.25
         S          3.638            3.128    251.62  12327.25
         S          3.623            3.128    251.62  12327.25
         S          3.578            3.128    251.62  12327.25
         S          3.583            3.128    251.62  12327.25
         S          3.611            3.128    251.62  12327.25
         S          3.500            3.128    251.62  12327.25
         S          3.540            3.128    251.62  12327.25
         S          3.570            3.128    251.62  12327.25
         S          3.574            3.128    251.62  12327.25
         S          3.501            3.128    251.62  12327.25
         S          3.523            3.128    251.62  12327.25
         S          3.638            3.128    251.62  12327.25
         S          3.635            3.128    251.62  12327.25
         S          3.622            3.128    251.62  12327.25

         Molecular C6 ( Ry / a.u.^6 ) =   4307461.03


     number of k points=     1  Gaussian smearing, width (Ry)=  0.0073
                       cart. coord. in units 2pi/alat
        k(    1) = (   0.0000000   0.0000000   0.0000000), wk =   1.0000000

     Dense  grid:  2908939 G-vectors     FFT dimensions: ( 240, 200, 243)

     Smooth grid:  1028365 G-vectors     FFT dimensions: ( 180, 144, 180)

     Estimated max dynamical RAM per process >       3.93 GB

     Estimated total dynamical RAM >      30.02 GB

     Check: negative core charge=   -0.000001
     Generating pointlists ...
     new r_m :   0.0497 (alat units)  1.8032 (a.u.) for type    1
     new r_m :   0.0497 (alat units)  1.8032 (a.u.) for type    2
     new r_m :   0.3572 (alat units) 12.9577 (a.u.) for type    3
     new r_m :   0.3572 (alat units) 12.9577 (a.u.) for type    4

     Initial potential from superposition of free atoms

     starting charge     935.9512, renormalised to     936.0000

     negative rho (up, down):  1.810E-02 1.206E-02
     Starting wfcs are  756 randomized atomic wfcs
     Checking if some PAW data can be deallocated... 

     total cpu time spent up to now is        9.6 secs

     per-process dynamical memory:   664.9 Mb

     Self-consistent Calculation

     iteration #  1     ecut=    50.00 Ry     beta= 0.20
     Davidson diagonalization with overlap
     ethr =  1.00E-02,  avg # of iterations =  2.5

     negative rho (up, down):  1.393E-02 9.273E-03

     total cpu time spent up to now is       11.1 secs

     total energy              =   -6964.70933557 Ry
     estimated scf accuracy    <      21.42039489 Ry

     total magnetization       =    22.59 Bohr mag/cell
     absolute magnetization    =    24.40 Bohr mag/cell

     iteration #  2     ecut=    50.00 Ry     beta= 0.20
     Davidson diagonalization with overlap
     ethr =  2.29E-03,  avg # of iterations =  1.0

     negative rho (up, down):  7.533E-03 7.368E-03

     total cpu time spent up to now is       12.3 secs

     total energy              =   -6963.65485169 Ry
     estimated scf accuracy    <      12.97912726 Ry

     total magnetization       =    20.42 Bohr mag/cell
     absolute magnetization    =    22.08 Bohr mag/cell

     iteration #  3     ecut=    50.00 Ry     beta= 0.20
     Davidson diagonalization with overlap
     ethr =  1.39E-03,  avg # of iterations =  2.5

     negative rho (up, down):  4.754E-03 3.934E-03

     total cpu time spent up to now is       13.5 secs

     total energy              =   -6966.07656787 Ry
     estimated scf accuracy    <       2.28191345 Ry

     total magnetization       =     3.47 Bohr mag/cell
     absolute magnetization    =     8.14 Bohr mag/cell

     iteration #  4     ecut=    50.00 Ry     beta= 0.20
     Davidson diagonalization with overlap
     ethr =  2.44E-04,  avg # of iterations =  1.5

     negative rho (up, down):  9.552E-04 1.578E-03

     total cpu time spent up to now is       14.7 secs

     total energy              =   -6966.64050906 Ry
     estimated scf accuracy    <       1.19126329 Ry

     total magnetization       =     5.34 Bohr mag/cell
     absolute magnetization    =     8.29 Bohr mag/cell

     iteration #  5     ecut=    50.00 Ry     beta= 0.20
     Davidson diagonalization with overlap
     ethr =  1.27E-04,  avg # of iterations =  2.0

     negative rho (up, down):  5.366E-04 1.375E-03

     total cpu time spent up to now is       16.0 secs

     total energy              =   -6966.47656199 Ry
     estimated scf accuracy    <       1.77938566 Ry

     total magnetization       =     1.80 Bohr mag/cell
     absolute magnetization    =     3.74 Bohr mag/cell

     iteration #  6     ecut=    50.00 Ry     beta= 0.20
     Davidson diagonalization with overlap
     ethr =  1.27E-04,  avg # of iterations =  5.0

     negative rho (up, down):  3.377E-04 7.169E-04

     total cpu time spent up to now is       17.3 secs

     total energy              =   -6966.74554628 Ry
     estimated scf accuracy    <       0.07645885 Ry

     total magnetization       =    -0.01 Bohr mag/cell
     absolute magnetization    =     2.03 Bohr mag/cell

     iteration #  7     ecut=    50.00 Ry     beta= 0.20
     Davidson diagonalization with overlap
     c_bands:  2 eigenvalues not converged
     ethr =  8.17E-06,  avg # of iterations = 20.0

     negative rho (up, down):  1.690E-04 3.062E-04

     total cpu time spent up to now is       19.1 secs

     total energy              =   -6966.75504938 Ry
     estimated scf accuracy    <       0.08189762 Ry

     total magnetization       =     0.00 Bohr mag/cell
     absolute magnetization    =     1.63 Bohr mag/cell

     iteration #  8     ecut=    50.00 Ry     beta= 0.20
     Davidson diagonalization with overlap
     ethr =  8.17E-06,  avg # of iterations =  1.0

     negative rho (up, down):  1.009E-04 1.723E-04

     total cpu time spent up to now is       20.3 secs

     total energy              =   -6966.75236526 Ry
     estimated scf accuracy    <       0.03409202 Ry

     total magnetization       =     0.01 Bohr mag/cell
     absolute magnetization    =     1.04 Bohr mag/cell

     iteration #  9     ecut=    50.00 Ry     beta= 0.20
     Davidson diagonalization with overlap
     ethr =  3.64E-06,  avg # of iterations =  2.0

     negative rho (up, down):  8.359E-05 1.192E-04

     total cpu time spent up to now is       21.5 secs

     total energy              =   -6966.74883790 Ry
     estimated scf accuracy    <       0.02244280 Ry

     total magnetization       =    -0.01 Bohr mag/cell
     absolute magnetization    =     0.43 Bohr mag/cell

     iteration # 10     ecut=    50.00 Ry     beta= 0.20
     Davidson diagonalization with overlap
     ethr =  2.40E-06,  avg # of iterations =  3.0

     negative rho (up, down):  7.659E-05 1.000E-04

     total cpu time spent up to now is       22.8 secs

     total energy              =   -6966.75055002 Ry
     estimated scf accuracy    <       0.01192203 Ry

     total magnetization       =     0.00 Bohr mag/cell
     absolute magnetization    =     0.17 Bohr mag/cell

     iteration # 11     ecut=    50.00 Ry     beta= 0.20
     Davidson diagonalization with overlap
     ethr =  1.27E-06,  avg # of iterations =  1.5

     negative rho (up, down):  1.547E-04 1.834E-04

     total cpu time spent up to now is       24.1 secs

     total energy              =   -6966.74978080 Ry
     estimated scf accuracy    <       0.00963225 Ry

     total magnetization       =     0.01 Bohr mag/cell
     absolute magnetization    =     0.25 Bohr mag/cell

     iteration # 12     ecut=    50.00 Ry     beta= 0.20
     Davidson diagonalization with overlap
     ethr =  1.03E-06,  avg # of iterations =  1.0

     negative rho (up, down):  1.453E-03 1.365E-03

     total cpu time spent up to now is       25.3 secs

     total energy              =   -6966.75046553 Ry
     estimated scf accuracy    <       0.00431126 Ry

     total magnetization       =    -0.00 Bohr mag/cell
     absolute magnetization    =     0.22 Bohr mag/cell

     iteration # 13     ecut=    50.00 Ry     beta= 0.20
     Davidson diagonalization with overlap
     ethr =  4.61E-07,  avg # of iterations =  1.5

     negative rho (up, down):  5.811E-03 5.503E-03

     total cpu time spent up to now is       26.5 secs

     total energy              =   -6966.75093305 Ry
     estimated scf accuracy    <       0.00248790 Ry

     total magnetization       =     0.00 Bohr mag/cell
     absolute magnetization    =     0.13 Bohr mag/cell

     iteration # 14     ecut=    50.00 Ry     beta= 0.20
     Davidson diagonalization with overlap
     ethr =  2.66E-07,  avg # of iterations =  1.5

     negative rho (up, down):  1.247E-02 1.218E-02

     total cpu time spent up to now is       27.7 secs

     total energy              =   -6966.75217695 Ry
     estimated scf accuracy    <       0.00156676 Ry

     total magnetization       =     0.00 Bohr mag/cell
     absolute magnetization    =     0.09 Bohr mag/cell

     iteration # 15     ecut=    50.00 Ry     beta= 0.20
     Davidson diagonalization with overlap
     ethr =  1.67E-07,  avg # of iterations =  1.5

     negative rho (up, down):  1.560E-02 1.540E-02

     total cpu time spent up to now is       28.9 secs

     total energy              =   -6966.75279112 Ry
     estimated scf accuracy    <       0.00050454 Ry

     total magnetization       =    -0.00 Bohr mag/cell
     absolute magnetization    =     0.05 Bohr mag/cell

     iteration # 16     ecut=    50.00 Ry     beta= 0.20
     Davidson diagonalization with overlap
     ethr =  5.39E-08,  avg # of iterations =  2.0

     negative rho (up, down):  1.576E-02 1.558E-02

     total cpu time spent up to now is       30.2 secs

     total energy              =   -6966.75321642 Ry
     estimated scf accuracy    <       0.00023226 Ry

     total magnetization       =     0.00 Bohr mag/cell
     absolute magnetization    =     0.04 Bohr mag/cell

     iteration # 17     ecut=    50.00 Ry     beta= 0.20
     Davidson diagonalization with overlap
     ethr =  2.48E-08,  avg # of iterations =  2.0

     negative rho (up, down):  1.683E-02 1.668E-02

     total cpu time spent up to now is       31.4 secs

     total energy              =   -6966.75332796 Ry
     estimated scf accuracy    <       0.00006377 Ry

     total magnetization       =    -0.00 Bohr mag/cell
     absolute magnetization    =     0.05 Bohr mag/cell

     iteration # 18     ecut=    50.00 Ry     beta= 0.20
     Davidson diagonalization with overlap
     ethr =  6.81E-09,  avg # of iterations =  2.0

     negative rho (up, down):  1.635E-02 1.623E-02

     total cpu time spent up to now is       32.7 secs

     total energy              =   -6966.75338108 Ry
     estimated scf accuracy    <       0.00002832 Ry

     total magnetization       =    -0.00 Bohr mag/cell
     absolute magnetization    =     0.03 Bohr mag/cell

     iteration # 19     ecut=    50.00 Ry     beta= 0.20
     Davidson diagonalization with overlap
     ethr =  3.03E-09,  avg # of iterations =  2.0

     negative rho (up, down):  1.638E-02 1.629E-02

     total cpu time spent up to now is       33.9 secs

     total energy              =   -6966.75341237 Ry
     estimated scf accuracy    <       0.00001248 Ry

     total magnetization       =     0.00 Bohr mag/cell
     absolute magnetization    =     0.02 Bohr mag/cell

     iteration # 20     ecut=    50.00 Ry     beta= 0.20
     Davidson diagonalization with overlap
     ethr =  1.33E-09,  avg # of iterations =  3.5

     negative rho (up, down):  1.635E-02 1.628E-02

     total cpu time spent up to now is       35.2 secs

     total energy              =   -6966.75341958 Ry
     estimated scf accuracy    <       0.00000430 Ry

     total magnetization       =    -0.00 Bohr mag/cell
     absolute magnetization    =     0.02 Bohr mag/cell

     iteration # 21     ecut=    50.00 Ry     beta= 0.20
     Davidson diagonalization with overlap
     ethr =  4.59E-10,  avg # of iterations =  3.5

     negative rho (up, down):  1.642E-02 1.636E-02

     total cpu time spent up to now is       36.5 secs

     total energy              =   -6966.75342254 Ry
     estimated scf accuracy    <       0.00000172 Ry

     total magnetization       =    -0.00 Bohr mag/cell
     absolute magnetization    =     0.01 Bohr mag/cell

     iteration # 22     ecut=    50.00 Ry     beta= 0.20
     Davidson diagonalization with overlap
     ethr =  1.84E-10,  avg # of iterations =  3.0

     negative rho (up, down):  1.622E-02 1.617E-02

     total cpu time spent up to now is       37.8 secs

     total energy              =   -6966.75342321 Ry
     estimated scf accuracy    <       0.00000111 Ry

     total magnetization       =    -0.00 Bohr mag/cell
     absolute magnetization    =     0.01 Bohr mag/cell

     iteration # 23     ecut=    50.00 Ry     beta= 0.20
     Davidson diagonalization with overlap
     ethr =  1.19E-10,  avg # of iterations =  2.0

     negative rho (up, down):  1.611E-02 1.611E-02
 
     Magnetic moment per site  (integrated on atomic sphere of radius R)
     atom   1 (R=0.050)  charge=  3.8451  magn= -0.0000
     atom   2 (R=0.050)  charge=  3.8517  magn= -0.0000
     atom   3 (R=0.050)  charge=  3.8316  magn= -0.0000
     atom   4 (R=0.050)  charge=  3.8271  magn= -0.0000
     atom   5 (R=0.050)  charge=  3.8513  magn= -0.0000
     atom   6 (R=0.050)  charge=  3.8509  magn= -0.0000
     atom   7 (R=0.050)  charge=  3.8387  magn= -0.0000
     atom   8 (R=0.050)  charge=  3.8547  magn= -0.0000
     atom   9 (R=0.050)  charge=  3.8554  magn= -0.0000
     atom  10 (R=0.050)  charge=  3.8573  magn= -0.0000
     atom  11 (R=0.050)  charge=  3.8391  magn= -0.0000
     atom  12 (R=0.050)  charge=  3.8346  magn= -0.0000
     atom  13 (R=0.050)  charge=  3.8448  magn= -0.0000
     atom  14 (R=0.050)  charge=  3.8513  magn= -0.0000
     atom  15 (R=0.050)  charge=  3.8320  magn= -0.0000
     atom  16 (R=0.050)  charge=  3.8272  magn= -0.0000
     atom  17 (R=0.050)  charge=  3.8513  magn= -0.0000
     atom  18 (R=0.050)  charge=  3.8510  magn= -0.0000
     atom  19 (R=0.050)  charge=  3.8386  magn= -0.0000
     atom  20 (R=0.050)  charge=  3.8540  magn= -0.0000
     atom  21 (R=0.050)  charge=  3.8555  magn= -0.0000
     atom  22 (R=0.050)  charge=  3.8576  magn= -0.0000
     atom  23 (R=0.050)  charge=  3.8389  magn= -0.0000
     atom  24 (R=0.050)  charge=  3.8352  magn= -0.0000
     atom  25 (R=0.050)  charge=  3.8451  magn= -0.0000
     atom  26 (R=0.050)  charge=  3.8519  magn= -0.0000
     atom  27 (R=0.050)  charge=  3.8314  magn= -0.0000
     atom  28 (R=0.050)  charge=  3.8271  magn= -0.0000
     atom  29 (R=0.050)  charge=  3.8517  magn= -0.0000
     atom  30 (R=0.050)  charge=  3.8513  magn= -0.0000
     atom  31 (R=0.050)  charge=  3.8394  magn= -0.0000
     atom  32 (R=0.050)  charge=  3.8541  magn= -0.0000
     atom  33 (R=0.050)  charge=  3.8552  magn= -0.0000
     atom  34 (R=0.050)  charge=  3.8571  magn= -0.0000
     atom  35 (R=0.050)  charge=  3.8393  magn= -0.0000
     atom  36 (R=0.050)  charge=  3.8349  magn= -0.0000
     atom  37 (R=0.050)  charge= 10.4406  magn=  0.0001
     atom  38 (R=0.050)  charge= 10.4064  magn=  0.0001
     atom  39 (R=0.050)  charge= 10.4253  magn=  0.0000
     atom  40 (R=0.050)  charge= 10.4298  magn= -0.0000
     atom  41 (R=0.050)  charge= 10.4254  magn= -0.0000
     atom  42 (R=0.050)  charge= 10.4353  magn=  0.0001
     atom  43 (R=0.050)  charge= 10.4231  magn=  0.0000
     atom  44 (R=0.050)  charge= 10.4192  magn=  0.0001
     atom  45 (R=0.050)  charge= 10.4400  magn=  0.0000
     atom  46 (R=0.050)  charge= 10.4359  magn=  0.0000
     atom  47 (R=0.050)  charge= 10.4282  magn= -0.0000
     atom  48 (R=0.050)  charge= 10.4165  magn=  0.0000
     atom  49 (R=0.050)  charge= 10.4404  magn=  0.0001
     atom  50 (R=0.050)  charge= 10.4062  magn=  0.0001
     atom  51 (R=0.050)  charge= 10.4255  magn=  0.0000
     atom  52 (R=0.050)  charge= 10.4295  magn= -0.0000
     atom  53 (R=0.050)  charge= 10.4256  magn= -0.0000
     atom  54 (R=0.050)  charge= 10.4354  magn=  0.0001
     atom  55 (R=0.050)  charge= 10.4231  magn=  0.0000
     atom  56 (R=0.050)  charge= 10.4194  magn=  0.0001
     atom  57 (R=0.050)  charge= 10.4403  magn=  0.0000
     atom  58 (R=0.050)  charge= 10.4361  magn=  0.0001
     atom  59 (R=0.050)  charge= 10.4283  magn= -0.0000
     atom  60 (R=0.050)  charge= 10.4161  magn=  0.0000
     atom  61 (R=0.050)  charge= 10.4406  magn=  0.0001
     atom  62 (R=0.050)  charge= 10.4063  magn=  0.0001
     atom  63 (R=0.050)  charge= 10.4255  magn=  0.0000
     atom  64 (R=0.050)  charge= 10.4293  magn= -0.0000
     atom  65 (R=0.050)  charge= 10.4249  magn= -0.0000
     atom  66 (R=0.050)  charge= 10.4354  magn=  0.0001
     atom  67 (R=0.050)  charge= 10.4230  magn=  0.0000
     atom  68 (R=0.050)  charge= 10.4192  magn=  0.0001
     atom  69 (R=0.050)  charge= 10.4397  magn=  0.0000
     atom  70 (R=0.050)  charge= 10.4358  magn=  0.0000
     atom  71 (R=0.050)  charge= 10.4280  magn= -0.0000
     atom  72 (R=0.050)  charge= 10.4163  magn=  0.0000
     atom  73 (R=0.050)  charge=  3.8423  magn= -0.0000
     atom  74 (R=0.050)  charge=  3.8426  magn= -0.0000
     atom  75 (R=0.050)  charge=  3.8361  magn= -0.0000
     atom  76 (R=0.050)  charge=  3.8531  magn= -0.0000
     atom  77 (R=0.050)  charge=  3.8517  magn= -0.0000
     atom  78 (R=0.050)  charge=  3.8515  magn= -0.0000
     atom  79 (R=0.050)  charge=  3.8383  magn= -0.0000
     atom  80 (R=0.050)  charge=  3.8555  magn= -0.0000
     atom  81 (R=0.050)  charge=  3.8529  magn= -0.0000
     atom  82 (R=0.050)  charge=  3.8343  magn= -0.0000
     atom  83 (R=0.050)  charge=  3.8438  magn= -0.0000
     atom  84 (R=0.050)  charge=  3.8380  magn= -0.0000
     atom  85 (R=0.050)  charge=  3.8422  magn= -0.0000
     atom  86 (R=0.050)  charge=  3.8425  magn= -0.0000
     atom  87 (R=0.050)  charge=  3.8357  magn= -0.0000
     atom  88 (R=0.050)  charge=  3.8532  magn= -0.0000
     atom  89 (R=0.050)  charge=  3.8516  magn= -0.0000
     atom  90 (R=0.050)  charge=  3.8514  magn= -0.0000
     atom  91 (R=0.050)  charge=  3.8386  magn= -0.0000
     atom  92 (R=0.050)  charge=  3.8561  magn= -0.0000
     atom  93 (R=0.050)  charge=  3.8535  magn= -0.0000
     atom  94 (R=0.050)  charge=  3.8345  magn= -0.0000
     atom  95 (R=0.050)  charge=  3.8432  magn= -0.0000
     atom  96 (R=0.050)  charge=  3.8381  magn= -0.0000
     atom  97 (R=0.050)  charge=  3.8425  magn= -0.0000
     atom  98 (R=0.050)  charge=  3.8419  magn= -0.0000
     atom  99 (R=0.050)  charge=  3.8355  magn= -0.0000
     atom 100 (R=0.050)  charge=  3.8529  magn= -0.0000
     atom 101 (R=0.050)  charge=  3.8510  magn= -0.0000
     atom 102 (R=0.050)  charge=  3.8511  magn= -0.0000
     atom 103 (R=0.050)  charge=  3.8386  magn= -0.0000
     atom 104 (R=0.050)  charge=  3.8554  magn= -0.0000
     atom 105 (R=0.050)  charge=  3.8528  magn= -0.0000
     atom 106 (R=0.050)  charge=  3.8339  magn= -0.0000
     atom 107 (R=0.050)  charge=  3.8427  magn= -0.0000
     atom 108 (R=0.050)  charge=  3.8381  magn= -0.0000

     total cpu time spent up to now is       38.8 secs

     End of self-consistent calculation

 ------ SPIN UP ------------


          k = 0.0000 0.0000 0.0000 (128566 PWs)   bands (ev):

   -62.2632 -62.2630 -62.2618 -62.1054 -62.1040 -62.1037 -62.0798 -62.0794
   -62.0788 -61.9967 -61.9965 -61.9961 -61.9736 -61.9730 -61.9727 -61.8765
   -61.8762 -61.8761 -61.8621 -61.8615 -61.8606 -61.8346 -61.8337 -61.8334
   -61.8154 -61.8148 -61.8146 -61.8102 -61.8097 -61.8095 -61.7749 -61.7743
   -61.7740 -61.7360 -61.7352 -61.7343 -36.5773 -36.5435 -36.5425 -36.4816
   -36.4656 -36.4651 -36.4106 -36.4105 -36.4087 -36.4017 -36.4012 -36.3788
   -36.3605 -36.3464 -36.3463 -36.3407 -36.3252 -36.3244 -36.3221 -36.3216
   -36.3205 -36.2986 -36.2949 -36.2948 -36.2906 -36.2845 -36.2839 -36.2807
   -36.2790 -36.2785 -36.2644 -36.2474 -36.2473 -36.2356 -36.2261 -36.2259
   -36.1904 -36.1900 -36.1848 -36.1740 -36.1736 -36.1722 -36.1338 -36.1329
   -36.1326 -36.1260 -36.1254 -36.1236 -36.0525 -36.0524 -36.0521 -36.0303
   -36.0302 -36.0295 -36.0216 -36.0202 -36.0199 -35.9904 -35.9902 -35.9889
   -35.9644 -35.9641 -35.9633 -35.9304 -35.9300 -35.9298 -35.9191 -35.9185
   -35.9184 -35.9008 -35.9002 -35.8965 -35.8835 -35.8830 -35.8802 -35.8753
   -35.8747 -35.8683 -35.8626 -35.8620 -35.8615 -35.8465 -35.8459 -35.8433
   -35.8050 -35.8044 -35.7967 -35.7889 -35.7884 -35.7866 -35.7771 -35.7764
   -35.7710 -35.7339 -35.7335 -35.7260 -35.7246 -35.7244 -35.7028 -35.6881
   -35.6875 -35.6797 -35.6256 -35.6250 -35.6165 -35.5883 -35.5876 -35.5708
   -14.9669 -14.6677 -14.6669 -14.5660 -14.5277 -14.2965 -14.2957 -14.2671
   -14.2662 -13.9465 -13.9444 -13.8950 -13.8334 -13.8315 -13.7476 -13.7308
   -13.7300 -13.7062 -13.6888 -13.6810 -13.6802 -13.6469 -13.6197 -13.6191
   -13.5611 -13.5603 -13.4874 -13.4756 -13.4751 -13.4550 -13.4388 -13.4376
   -13.4311 -13.4309 -13.3927 -13.3795 -13.3781 -13.3510 -13.3503 -13.3483
   -13.2932 -13.2636 -13.2619 -13.2504 -13.2414 -13.2404 -13.1829 -13.1302
   -13.1293 -13.0852 -13.0548 -13.0529 -13.0321 -12.9724 -12.9603 -12.9599
   -12.9163 -12.9156 -12.9086 -12.8591 -12.8411 -12.8409 -12.8001 -12.7168
   -12.7164 -12.6501 -12.6494 -12.6430 -12.5938 -12.5835 -12.5824 -12.5600
    -6.9918  -6.9000  -6.8323  -6.7772  -6.7217  -6.6563  -6.6562  -6.4484
    -6.4476  -6.3831  -6.3825  -6.3431  -6.2959  -6.2946  -6.2253  -6.1214
    -6.1196  -6.0899  -6.0889  -6.0853  -6.0279  -6.0276  -6.0029  -6.0014
    -5.9930  -5.9302  -5.9297  -5.9284  -5.8973  -5.8966  -5.8926  -5.8285
    -5.8220  -5.8216  -5.7853  -5.7838  -5.7823  -5.7472  -5.7466  -5.6643
    -5.6517  -5.6500  -5.6418  -5.6215  -5.6208  -5.6070  -5.5600  -5.5455
    -5.5451  -5.5155  -5.4595  -5.4589  -5.4415  -5.4401  -5.4026  -5.4021
    -5.3678  -5.3314  -5.2800  -5.2793  -5.2602  -5.2459  -5.2455  -5.1650
    -5.1645  -5.1485  -5.1232  -5.0299  -5.0288  -5.0279  -4.9607  -4.9603
    -4.9568  -4.9121  -4.9118  -4.8824  -4.8661  -4.8657  -4.8384  -4.7865
    -4.7859  -4.7478  -4.7226  -4.7216  -4.6760  -4.6751  -4.6701  -4.6642
    -4.6194  -4.6186  -4.5623  -4.5615  -4.5239  -4.4926  -4.4922  -4.4476
    -4.4467  -4.4463  -4.3961  -4.3959  -4.3770  -4.3199  -4.3038  -4.3029
    -4.2747  -4.2737  -4.2727  -4.2311  -4.2288  -4.2282  -4.2077  -4.1559
    -4.1558  -4.1511  -4.1233  -4.1076  -4.1071  -4.0839  -4.0735  -4.0728
    -3.9741  -3.9730  -3.9590  -3.9374  -3.9360  -3.9100  -3.9097  -3.8342
    -3.8335  -3.8156  -3.7828  -3.7823  -3.7223  -3.7205  -3.6824  -3.6818
    -3.6801  -3.6219  -3.6214  -3.5712  -3.5705  -3.5532  -3.5105  -3.5099
    -3.5089  -3.5073  -3.4776  -3.4512  -3.4504  -3.4492  -3.3882  -3.3676
    -3.3668  -3.3034  -3.2896  -3.2531  -3.2520  -3.2229  -3.2059  -3.2059
    -3.1885  -3.1623  -3.1617  -3.1248  -3.0823  -3.0814  -3.0695  -3.0393
    -3.0113  -3.0101  -2.9661  -2.9628  -2.9622  -2.9003  -2.8825  -2.8809
    -2.8588  -2.7741  -2.7733  -2.7712  -2.7591  -2.7582  -2.6914  -2.6639
    -2.6630  -2.5463  -2.5453  -2.4814  -2.4676  -2.4672  -2.4216  -2.4107
    -2.4104  -2.3026  -2.2640  -2.2631  -2.2447  -2.2317  -2.2307  -2.2017
    -2.1361  -2.1341  -2.1075  -2.0533  -2.0509  -2.0494  -1.9923  -1.9449
    -1.9442  -1.9263  -1.9099  -1.9091  -1.8793  -1.8434  -1.8425  -1.8078
    -1.7815  -1.7810  -1.7530  -1.7509  -1.7506  -1.7154  -1.7151  -1.7117
    -1.6839  -1.6820  -1.6436  -1.6431  -1.6397  -1.6060  -1.5721  -1.5712
    -1.5547  -1.5414  -1.5405  -1.4908  -1.4896  -1.4435  -1.4285  -1.3440
    -1.3433  -1.2625  -1.2396  -1.2383  -1.1463  -1.1453  -1.1148  -1.0612
    -0.9830  -0.9824  -0.9619  -0.8898  -0.5574  -0.5027  -0.5000  -0.3580
    -0.3327  -0.3311  -0.2697  -0.2688  -0.2597  -0.1440  -0.1429  -0.1142
     0.0801   0.0809   0.2563   0.2578   0.2597   0.3400   0.4404   0.4416
     0.4654   0.5138   0.5158   0.5692   0.6372   0.6392   0.6670   0.6758
     0.6764   0.8378   0.9864   1.0031   1.0047   1.0564   1.0937   1.0966
     1.1706   1.2097   1.2105   1.2532   1.3274   1.3279   1.4202   1.4209
     1.4554   1.4722   1.4726   1.5090   1.5093   1.5163   1.5595   1.5607
     1.5619   1.5979   1.5997   1.6012   1.6077   1.6087   1.6472   1.6725
     1.6729   1.6791   1.7170   1.7179   1.7808   1.8055   1.8063   1.8281
     1.8288   1.8445   1.8714   1.8932   1.8937   1.9658   1.9668   1.9673
     2.0050   2.0079   2.0197   2.0531   2.0538   2.0692   2.1282   2.1309
     2.1615   2.2348   2.2378   2.2689   2.2970   2.2972   2.3109   2.3118
     2.3154   2.4521

 ------ SPIN DOWN ----------


          k = 0.0000 0.0000 0.0000 (128566 PWs)   bands (ev):

   -62.2631 -62.2629 -62.2618 -62.1053 -62.1039 -62.1036 -62.0799 -62.0794
   -62.0788 -61.9967 -61.9965 -61.9962 -61.9737 -61.9731 -61.9728 -61.8766
   -61.8763 -61.8761 -61.8620 -61.8614 -61.8606 -61.8347 -61.8338 -61.8334
   -61.8154 -61.8149 -61.8146 -61.8101 -61.8097 -61.8094 -61.7749 -61.7744
   -61.7740 -61.7360 -61.7352 -61.7343 -36.5772 -36.5434 -36.5424 -36.4816
   -36.4656 -36.4651 -36.4106 -36.4105 -36.4087 -36.4016 -36.4011 -36.3787
   -36.3606 -36.3465 -36.3463 -36.3407 -36.3252 -36.3244 -36.3220 -36.3216
   -36.3205 -36.2986 -36.2950 -36.2948 -36.2906 -36.2844 -36.2839 -36.2807
   -36.2790 -36.2785 -36.2644 -36.2475 -36.2474 -36.2356 -36.2261 -36.2259
   -36.1904 -36.1900 -36.1848 -36.1740 -36.1736 -36.1722 -36.1337 -36.1328
   -36.1326 -36.1259 -36.1253 -36.1236 -36.0525 -36.0524 -36.0521 -36.0303
   -36.0302 -36.0295 -36.0217 -36.0202 -36.0199 -35.9904 -35.9903 -35.9889
   -35.9644 -35.9642 -35.9633 -35.9303 -35.9300 -35.9297 -35.9191 -35.9185
   -35.9184 -35.9008 -35.9002 -35.8965 -35.8835 -35.8830 -35.8802 -35.8754
   -35.8748 -35.8683 -35.8626 -35.8620 -35.8615 -35.8465 -35.8458 -35.8433
   -35.8051 -35.8044 -35.7967 -35.7889 -35.7885 -35.7866 -35.7771 -35.7764
   -35.7710 -35.7340 -35.7335 -35.7261 -35.7246 -35.7243 -35.7028 -35.6881
   -35.6875 -35.6797 -35.6257 -35.6251 -35.6165 -35.5883 -35.5876 -35.5708
   -14.9669 -14.6678 -14.6669 -14.5661 -14.5278 -14.2966 -14.2958 -14.2672
   -14.2663 -13.9466 -13.9445 -13.8951 -13.8335 -13.8316 -13.7477 -13.7309
   -13.7301 -13.7063 -13.6889 -13.6811 -13.6803 -13.6470 -13.6198 -13.6192
   -13.5612 -13.5604 -13.4876 -13.4757 -13.4753 -13.4551 -13.4389 -13.4377
   -13.4312 -13.4310 -13.3928 -13.3796 -13.3782 -13.3511 -13.3504 -13.3484
   -13.2933 -13.2637 -13.2620 -13.2505 -13.2415 -13.2405 -13.1830 -13.1303
   -13.1295 -13.0853 -13.0549 -13.0530 -13.0322 -12.9725 -12.9604 -12.9600
   -12.9164 -12.9157 -12.9087 -12.8592 -12.8412 -12.8410 -12.8002 -12.7169
   -12.7165 -12.6502 -12.6495 -12.6431 -12.5939 -12.5836 -12.5825 -12.5601
    -6.9918  -6.9000  -6.8323  -6.7773  -6.7217  -6.6564  -6.6562  -6.4484
    -6.4476  -6.3831  -6.3825  -6.3431  -6.2959  -6.2947  -6.2253  -6.1214
    -6.1196  -6.0899  -6.0889  -6.0854  -6.0279  -6.0276  -6.0030  -6.0015
    -5.9931  -5.9302  -5.9297  -5.9284  -5.8973  -5.8966  -5.8927  -5.8286
    -5.8220  -5.8216  -5.7854  -5.7838  -5.7824  -5.7472  -5.7467  -5.6643
    -5.6518  -5.6500  -5.6419  -5.6215  -5.6208  -5.6070  -5.5600  -5.5455
    -5.5451  -5.5155  -5.4596  -5.4590  -5.4416  -5.4401  -5.4027  -5.4021
    -5.3679  -5.3314  -5.2801  -5.2794  -5.2602  -5.2459  -5.2455  -5.1650
    -5.1645  -5.1486  -5.1233  -5.0299  -5.0288  -5.0279  -4.9608  -4.9603
    -4.9568  -4.9121  -4.9118  -4.8824  -4.8661  -4.8657  -4.8384  -4.7865
    -4.7860  -4.7478  -4.7226  -4.7216  -4.6760  -4.6752  -4.6702  -4.6643
    -4.6195  -4.6187  -4.5623  -4.5616  -4.5239  -4.4927  -4.4922  -4.4476
    -4.4468  -4.4463  -4.3961  -4.3960  -4.3770  -4.3200  -4.3038  -4.3029
    -4.2747  -4.2737  -4.2727  -4.2312  -4.2289  -4.2282  -4.2077  -4.1559
    -4.1558  -4.1511  -4.1233  -4.1077  -4.1071  -4.0840  -4.0735  -4.0729
    -3.9742  -3.9730  -3.9590  -3.9375  -3.9361  -3.9101  -3.9098  -3.8342
    -3.8336  -3.8156  -3.7828  -3.7824  -3.7223  -3.7205  -3.6824  -3.6818
    -3.6802  -3.6219  -3.6215  -3.5712  -3.5705  -3.5532  -3.5105  -3.5099
    -3.5089  -3.5074  -3.4776  -3.4512  -3.4504  -3.4492  -3.3882  -3.3676
    -3.3668  -3.3035  -3.2896  -3.2531  -3.2521  -3.2229  -3.2060  -3.2059
    -3.1885  -3.1624  -3.1617  -3.1249  -3.0823  -3.0814  -3.0696  -3.0394
    -3.0113  -3.0101  -2.9661  -2.9629  -2.9622  -2.9003  -2.8826  -2.8809
    -2.8588  -2.7742  -2.7734  -2.7713  -2.7591  -2.7582  -2.6914  -2.6640
    -2.6630  -2.5463  -2.5454  -2.4814  -2.4676  -2.4672  -2.4216  -2.4108
    -2.4104  -2.3027  -2.2640  -2.2632  -2.2447  -2.2317  -2.2308  -2.2017
    -2.1362  -2.1342  -2.1076  -2.0533  -2.0509  -2.0494  -1.9924  -1.9449
    -1.9443  -1.9263  -1.9100  -1.9091  -1.8794  -1.8434  -1.8425  -1.8078
    -1.7815  -1.7810  -1.7530  -1.7509  -1.7506  -1.7154  -1.7152  -1.7117
    -1.6840  -1.6821  -1.6437  -1.6431  -1.6398  -1.6060  -1.5721  -1.5712
    -1.5547  -1.5414  -1.5405  -1.4909  -1.4896  -1.4436  -1.4285  -1.3440
    -1.3433  -1.2625  -1.2396  -1.2383  -1.1463  -1.1453  -1.1148  -1.0612
    -0.9830  -0.9824  -0.9620  -0.8899  -0.5575  -0.5027  -0.5000  -0.3580
    -0.3327  -0.3311  -0.2697  -0.2688  -0.2597  -0.1440  -0.1429  -0.1142
     0.0801   0.0809   0.2563   0.2578   0.2596   0.3399   0.4404   0.4416
     0.4653   0.5138   0.5158   0.5692   0.6372   0.6392   0.6669   0.6757
     0.6764   0.8379   0.9865   1.0031   1.0047   1.0564   1.0937   1.0966
     1.1706   1.2097   1.2105   1.2532   1.3274   1.3279   1.4202   1.4209
     1.4554   1.4722   1.4725   1.5090   1.5093   1.5163   1.5595   1.5607
     1.5619   1.5978   1.5997   1.6012   1.6076   1.6087   1.6472   1.6725
     1.6729   1.6791   1.7170   1.7179   1.7808   1.8055   1.8063   1.8281
     1.8288   1.8445   1.8713   1.8933   1.8937   1.9658   1.9667   1.9673
     2.0050   2.0079   2.0197   2.0531   2.0537   2.0692   2.1282   2.1309
     2.1615   2.2349   2.2378   2.2689   2.2969   2.2973   2.3109   2.3118
     2.3158   2.4524

     the Fermi energy is    -0.7249 ev

!    total energy              =   -6966.75342362 Ry
     estimated scf accuracy    <       0.00000053 Ry
     smearing contrib. (-TS)   =      -0.00060632 Ry
     internal energy E=F+TS    =   -6966.75281730 Ry

     The total energy is F=E-TS. E is the sum of the following terms:
     one-electron contribution =  -39885.01035047 Ry
     hartree contribution      =   19969.49668525 Ry
     xc contribution           =   -1531.94318011 Ry
     ewald contribution        =   14481.99001930 Ry
     DFT-D3 Dispersion         =      -1.28599127 Ry
     one-center paw contrib.   =       0.00000000 Ry

     total magnetization       =    -0.00 Bohr mag/cell
     absolute magnetization    =     0.01 Bohr mag/cell

     convergence has been achieved in  23 iterations

     negative rho (up, down):  1.611E-02 1.611E-02

     Forces acting on atoms (cartesian axes, Ry/au):

     atom    1 type  2   force =    -0.00042347    0.00019397    0.00005252
     atom    2 type  2   force =    -0.00015651   -0.00026226    0.00036028
     atom    3 type  2   force =    -0.00038933    0.00008184    0.00008648
     atom    4 type  2   force =    -0.00034137   -0.00007403   -0.00035639
     atom    5 type  2   force =    -0.00031469   -0.00017078    0.00056102
     atom    6 type  2   force =     0.00026128    0.00040007    0.00071800
     atom    7 type  2   force =     0.00043460    0.00005161    0.00006224
     atom    8 type  2   force =    -0.00013787   -0.00000330    0.00005925
     atom    9 type  2   force =    -0.00016391    0.00001307   -0.00000014
     atom   10 type  2   force =    -0.00003644   -0.00005674   -0.00015913
     atom   11 type  2   force =    -0.00016777   -0.00060970   -0.00006697
     atom   12 type  2   force =     0.00003093    0.00001634    0.00037166
     atom   13 type  2   force =    -0.00021524   -0.00020078    0.00022372
     atom   14 type  2   force =    -0.00030901   -0.00026265    0.00056874
     atom   15 type  2   force =     0.00001582   -0.00012813    0.00004450
     atom   16 type  2   force =     0.00049754    0.00012262   -0.00045404
     atom   17 type  2   force =     0.00012735    0.00026800    0.00051923
     atom   18 type  2   force =     0.00009280    0.00008090    0.00050333
     atom   19 type  2   force =     0.00023417    0.00020632   -0.00003263
     atom   20 type  2   force =    -0.00010299    0.00041987    0.00037645
     atom   21 type  2   force =     0.00019560    0.00013797   -0.00043681
     atom   22 type  2   force =     0.00017184   -0.00020500   -0.00063772
     atom   23 type  2   force =     0.00008877   -0.00011376    0.00018763
     atom   24 type  2   force =     0.00035885   -0.00033075   -0.00029108
     atom   25 type  2   force =    -0.00024638   -0.00017621   -0.00021947
     atom   26 type  2   force =     0.00011023    0.00008534    0.00011371
     atom   27 type  2   force =     0.00016883    0.00025731    0.00022212
     atom   28 type  2   force =     0.00014416    0.00000547   -0.00032410
     atom   29 type  2   force =    -0.00032827    0.00048997    0.00032034
     atom   30 type  2   force =    -0.00013581   -0.00028377    0.00058561
     atom   31 type  2   force =    -0.00025989   -0.00024670   -0.00067759
     atom   32 type  2   force =     0.00004460    0.00040791    0.00039589
     atom   33 type  2   force =    -0.00004198    0.00003095    0.00014912
     atom   34 type  2   force =    -0.00006696   -0.00039878   -0.00008689
     atom   35 type  2   force =    -0.00016568    0.00017045   -0.00009739
     atom   36 type  2   force =     0.00006882   -0.00002460    0.00007923
     atom   37 type  1   force =    -0.00031809    0.00003134    0.00054550
     atom   38 type  1   force =     0.00021976   -0.00016984   -0.00011762
     atom   39 type  1   force =     0.00002286    0.00025483   -0.00038439
     atom   40 type  1   force =    -0.00010016   -0.00013056   -0.00033544
     atom   41 type  1   force =    -0.00071599   -0.00032571    0.00030357
     atom   42 type  1   force =     0.00027635    0.00034339   -0.00018380
     atom   43 type  1   force =    -0.00019408   -0.00020072    0.00056894
     atom   44 type  1   force =    -0.00032925   -0.00028904   -0.00026683
     atom   45 type  1   force =     0.00028783    0.00002168   -0.00005271
     atom   46 type  1   force =    -0.00003953    0.00024780   -0.00040309
     atom   47 type  1   force =    -0.00005750    0.00020860   -0.00011382
     atom   48 type  1   force =     0.00019813    0.00050075    0.00028782
     atom   49 type  1   force =     0.00009721    0.00050072    0.00019691
     atom   50 type  1   force =     0.00005429    0.00004292    0.00047936
     atom   51 type  1   force =    -0.00016946    0.00023668    0.00008611
     atom   52 type  1   force =    -0.00008533   -0.00018374    0.00032868
     atom   53 type  1   force =    -0.00027430    0.00004312    0.00013776
     atom   54 type  1   force =    -0.00002440   -0.00005283    0.00024339
     atom   55 type  1   force =     0.00010766   -0.00028355    0.00034515
     atom   56 type  1   force =     0.00002261   -0.00025361   -0.00005368
     atom   57 type  1   force =    -0.00049231   -0.00002923   -0.00070399
     atom   58 type  1   force =    -0.00016576   -0.00010570   -0.00047113
     atom   59 type  1   force =    -0.00003643    0.00000786    0.00049804
     atom   60 type  1   force =     0.00058499   -0.00000434    0.00037928
     atom   61 type  1   force =    -0.00014331   -0.00022325    0.00013901
     atom   62 type  1   force =     0.00017452   -0.00006839   -0.00016494
     atom   63 type  1   force =    -0.00001522   -0.00013998    0.00009349
     atom   64 type  1   force =    -0.00034563    0.00006271   -0.00036984
     atom   65 type  1   force =     0.00013429   -0.00002766   -0.00017093
     atom   66 type  1   force =    -0.00019544    0.00017349    0.00039386
     atom   67 type  1   force =     0.00013977   -0.00008829    0.00002188
     atom   68 type  1   force =    -0.00007839   -0.00015562   -0.00001518
     atom   69 type  1   force =     0.00020026    0.00015376   -0.00044143
     atom   70 type  1   force =    -0.00005619    0.00021176   -0.00005506
     atom   71 type  1   force =    -0.00011469   -0.00015389   -0.00000041
     atom   72 type  1   force =    -0.00011771    0.00003250    0.00027187
     atom   73 type  2   force =     0.00001953    0.00008879   -0.00012367
     atom   74 type  2   force =    -0.00007481    0.00038390    0.00000641
     atom   75 type  2   force =    -0.00033557    0.00015371   -0.00003392
     atom   76 type  2   force =    -0.00015562   -0.00022567   -0.00016777
     atom   77 type  2   force =    -0.00003506   -0.00037144    0.00036572
     atom   78 type  2   force =     0.00021771   -0.00009128    0.00020531
     atom   79 type  2   force =     0.00038832    0.00005365   -0.00021554
     atom   80 type  2   force =    -0.00009120   -0.00002438   -0.00035043
     atom   81 type  2   force =     0.00035273   -0.00005927   -0.00054647
     atom   82 type  2   force =     0.00004871   -0.00050433   -0.00036803
     atom   83 type  2   force =     0.00008426   -0.00013622   -0.00024544
     atom   84 type  2   force =     0.00007496    0.00052118   -0.00002235
     atom   85 type  2   force =     0.00001353    0.00017736   -0.00013509
     atom   86 type  2   force =    -0.00039030    0.00034690   -0.00015018
     atom   87 type  2   force =     0.00008300   -0.00019912   -0.00055019
     atom   88 type  2   force =     0.00037717   -0.00049684   -0.00003553
     atom   89 type  2   force =     0.00042720    0.00016967    0.00006799
     atom   90 type  2   force =     0.00042959    0.00005198    0.00013332
     atom   91 type  2   force =    -0.00012494    0.00016741   -0.00007098
     atom   92 type  2   force =     0.00017087   -0.00003428   -0.00000085
     atom   93 type  2   force =    -0.00011348   -0.00017583    0.00010163
     atom   94 type  2   force =     0.00008702   -0.00017742    0.00017473
     atom   95 type  2   force =     0.00024927   -0.00010174   -0.00015822
     atom   96 type  2   force =     0.00013728   -0.00014427    0.00023760
     atom   97 type  2   force =     0.00035978    0.00043780    0.00016881
     atom   98 type  2   force =     0.00027659    0.00038930   -0.00018920
     atom   99 type  2   force =     0.00023444    0.00024132   -0.00047970
     atom  100 type  2   force =    -0.00010460   -0.00005696   -0.00009647
     atom  101 type  2   force =    -0.00015514    0.00014970   -0.00023147
     atom  102 type  2   force =     0.00031449    0.00004839    0.00014794
     atom  103 type  2   force =     0.00018317   -0.00016144    0.00008900
     atom  104 type  2   force =     0.00019663   -0.00018675   -0.00045894
     atom  105 type  2   force =    -0.00025707   -0.00022139   -0.00059793
     atom  106 type  2   force =    -0.00026312   -0.00014966   -0.00014179
     atom  107 type  2   force =    -0.00007590    0.00005029   -0.00031977
     atom  108 type  2   force =    -0.00004344    0.00000697    0.00025440

     Total force =     0.004746     Total SCF correction =     0.001627
     SCF correction compared to forces is large: reduce conv_thr to get better values


     Computing stress (Cartesian axis) and pressure


     negative rho (up, down):  1.611E-02 1.611E-02
          total   stress  (Ry/bohr**3)                   (kbar)     P=        5.49
   0.00008062   0.00002559   0.00000025           11.86        3.76        0.04
   0.00002559   0.00003521  -0.00000002            3.76        5.18       -0.00
   0.00000025  -0.00000002  -0.00000379            0.04       -0.00       -0.56


     BFGS Geometry Optimization
     Energy error            =      0.0E+00 Ry
     Gradient error          =      7.2E-04 Ry/Bohr
     Cell gradient error     =      1.2E+01 kbar

     number of scf cycles    =   1
     number of bfgs steps    =   0

     enthalpy           new  =   -6966.7534236179 Ry

     new trust radius        =       0.0836477583 bohr
     new conv_thr            =       0.0000010000 Ry

     new unit-cell volume =  43188.22395 a.u.^3 (  6399.83450 Ang^3 )
     density =      1.49527 g/cm^3

CELL_PARAMETERS (angstrom)
  19.233141210   0.000000000   0.000000000
   0.000000000  16.637510223   0.000000000
   0.000000000   0.000000000  20.000008860

ATOMIC_POSITIONS (angstrom)
S               19.2026845528        3.6784750636       19.9239228248
S                1.6111967696        0.8828031799       19.8208217708
S               -0.0097506585        9.2721610514        0.2293672654
S                1.5345300750        6.5064240768        0.1725580963
S               19.2995893545       14.8233112594       19.8397378111
S                1.6462133666       12.0454812761       -0.1099137322
S                3.0855435892        3.7740304075        0.0528577259
S                4.7751164155        0.9411457634        0.2232214247
S                3.2147948768        9.2655642008       19.8259121572
S                4.7802924609        6.5302248179       19.7931611629
S                3.2912272311       14.6971177861        0.0366369221
S                4.8638855615       11.9916482499        0.2060728746
S                6.3800571702        3.6803524325       -0.0832768724
S                8.0232945459        0.8790267013       19.8152581252
S                6.3985644455        9.2718167790        0.2246234777
S                7.9442745628        6.5069540960        0.1694311923
S                6.4768475626       14.8199714648       19.8338030828
S                8.0576382587       12.0456880857       19.8867726593
S                9.4979218677        3.7750287446       20.0474897335
S               11.1876918698        0.9376138312        0.2251835691
S                9.6255771304        9.2671753922       19.8250291612
S               11.1925279630        6.5319073714       19.7938634332
S                9.7045367893       14.6933155120        0.0393238692
S               11.2768224112       11.9937101001        0.2159654776
S               12.7945306265        3.6791055486       -0.0771812697
S               14.4337580028        0.8787606675       19.8263969709
S               12.8123936436        9.2730675434        0.2307487400
S               14.3572943921        6.5079213723        0.1753557333
S               12.8915119953       14.8189733984       19.8452239991
S               14.4703662787       12.0471085316       -0.1031846804
S               15.9090126192        3.7746243682       20.0595989729
S               17.5957275035        0.9394907712        0.2299448472
S               16.0367499649        9.2680586169       19.8309237807
S               17.6027743870        6.5304037951       19.7976586383
S               16.1143983163       14.6940915825        0.0471579056
S               17.6876137828       11.9927587931        0.2160671593
Mo               0.2224414271       16.5377393574        1.5409700355
Mo               1.5251306484        2.4829950952        1.5668553978
Mo              18.8995185503        5.4882485793        1.4890129596
Mo               1.8469254362        8.4656604224        1.6660405211
Mo               0.3187131684       11.2420245841        1.6873390945
Mo               1.4866518471       13.8265382346        1.5449699970
Mo               2.9545939887       16.4773839742        1.5123886981
Mo               4.7575535152        3.0678330701        1.4988980420
Mo               3.3629152630        5.7459542661        1.6158641384
Mo               4.5570371135        8.2007995689        1.4948101958
Mo               3.0360078784       10.9326666921        1.5131514393
Mo               5.1459116899       13.9892176217        1.6113186176
Mo               6.6310974880       16.5348631829        1.5348840690
Mo               7.9348324118        2.4822526570        1.5586021046
Mo               6.0773150631        5.4881134955        1.4843917153
Mo               8.2553394022        8.4661732839        1.6627260491
Mo               6.7256103066       11.2413628575        1.6815308591
Mo               7.8948846606       13.8248233874        1.5424870559
Mo               9.3629784773       -0.1615016086        1.5111884753
Mo              11.1644691558        3.0675074732        1.4968924737
Mo               9.7733657255        5.7467573041        1.6138982863
Mo              10.9666586310        8.2031909160        1.4945211403
Mo               9.4432714298       10.9347693730        1.5126612523
Mo              11.5570421601       13.9911935871        1.6211788257
Mo              13.0427073173       -0.1016722224        1.5447164022
Mo              14.3454333105        2.4814998147        1.5701865185
Mo              12.4870314377        5.4891297116        1.4863553514
Mo              14.6686634090        8.4659914708        1.6701005868
Mo              13.1384068266       11.2415139874        1.6909643468
Mo              14.3081769185       13.8245613200        1.5533944014
Mo              15.7749858450       -0.1609228831        1.5208109475
Mo              17.5794771862        3.0676517418        1.5052088280
Mo              16.1847736746        5.7469045463        1.6208231544
Mo              17.3794793927        8.2022947400        1.4976661721
Mo              15.8571581207       10.9345253022        1.5200143136
Mo              17.9708908761       13.9917417210        1.6192733097
S               19.1416567278        1.8086106429        3.0828374576
S                1.5406455545        4.6065130579        2.8740259027
S               19.2254226857        7.4071212459        2.9653957824
S                1.6541925277       10.1696669216        3.3465156388
S                0.0628727182       12.9537061058        3.3170529720
S                1.6129862230       15.6305786752        3.2614152251
S                3.1963732834        1.8067702788        3.0447674321
S                4.7154973036        4.6264639182        3.2784406202
S                3.1872092755        7.3864462069        3.3278321087
S                4.8670777899       10.1625300298        2.9634005463
S                3.3259255382       12.9416647695        2.9374288381
S                4.8195876219       15.7812828262        3.0746554954
S                6.3191304008        1.8073425983        3.0751715943
S                7.9510359875        4.6054954691        2.8689126377
S                6.4006585293        7.4075029367        2.9635365716
S                8.0585749277       10.1700749203        3.3426356669
S                6.4669310418       12.9511001012        3.3118229983
S                8.0184079772       15.6291001914        3.2584951781
S                9.6042188805        1.8062757547        3.0400946892
S               11.1212912310        4.6255681150        3.2768536905
S                9.5964069127        7.3882316642        3.3247500117
S               11.2753923686       10.1621132092        2.9642329806
S                9.7323384313       12.9415018628        2.9396268346
S               11.2258642673       15.7852703327        3.0797125336
S               12.7246441540        1.8090043456        3.0810800088
S               14.3588520840        4.6070408778        2.8758427107
S               12.8100349775        7.4065524343        2.9659376129
S               14.4731212768       10.1687469563        3.3510453793
S               12.8792032759       12.9515848171        3.3220019329
S               14.4308898273       15.6301689246        3.2688677186
S               16.0163190130        1.8081231149        3.0496922093
S               17.5362402730        4.6276223948        3.2837392895
S               16.0116935933        7.3890137363        3.3317438316
S               17.6929162608       10.1620218760        2.9666578266
S               16.1502947558       12.9417459907        2.9456455028
S               17.6435939933       15.7847745096        3.0810045353


     Message from routine punch:
     Nothing written, as per user request (disk_io='none')
     NEW-OLD atomic charge density approx. for the potential
     NEW k-points:
   0.0000000   0.0000000   0.0000000   1.0000000
   0.0000000   0.0000000   0.0000000   1.0000000

     Check: negative core charge=   -0.000001

     negative rho (up, down):  1.611E-02 1.611E-02
     Generating pointlists ...

     total cpu time spent up to now is       52.8 secs

     per-process dynamical memory:  1029.0 Mb

     Self-consistent Calculation

     iteration #  1     ecut=    50.00 Ry     beta= 0.20
     Davidson diagonalization with overlap
     ethr =  1.00E-06,  avg # of iterations =  3.0

     Threshold (ethr) on eigenvalues was too large:
     Diagonalizing with lowered threshold

     Davidson diagonalization with overlap
     ethr =  6.67E-08,  avg # of iterations =  4.0

     negative rho (up, down):  1.617E-02 1.617E-02

     total cpu time spent up to now is       55.1 secs

     total energy              =   -6966.76107105 Ry
     estimated scf accuracy    <       0.00058425 Ry

     total magnetization       =    -0.00 Bohr mag/cell
     absolute magnetization    =     0.00 Bohr mag/cell

     iteration #  2     ecut=    50.00 Ry     beta= 0.20
     Davidson diagonalization with overlap
     ethr =  6.24E-08,  avg # of iterations =  1.0

     negative rho (up, down):  1.642E-02 1.642E-02

     total cpu time spent up to now is       56.2 secs

     total energy              =   -6966.76100578 Ry
     estimated scf accuracy    <       0.00033241 Ry

     total magnetization       =    -0.00 Bohr mag/cell
     absolute magnetization    =     0.00 Bohr mag/cell

     iteration #  3     ecut=    50.00 Ry     beta= 0.20
     Davidson diagonalization with overlap
     ethr =  3.55E-08,  avg # of iterations =  2.0

     negative rho (up, down):  1.645E-02 1.645E-02

     total cpu time spent up to now is       57.4 secs

     total energy              =   -6966.76105846 Ry
     estimated scf accuracy    <       0.00002063 Ry

     total magnetization       =    -0.00 Bohr mag/cell
     absolute magnetization    =     0.00 Bohr mag/cell

     iteration #  4     ecut=    50.00 Ry     beta= 0.20
     Davidson diagonalization with overlap
     ethr =  2.20E-09,  avg # of iterations =  4.0

     negative rho (up, down):  1.651E-02 1.651E-02

     total cpu time spent up to now is       58.8 secs

     total energy              =   -6966.76106339 Ry
     estimated scf accuracy    <       0.00001454 Ry

     total magnetization       =    -0.00 Bohr mag/cell
     absolute magnetization    =     0.00 Bohr mag/cell

     iteration #  5     ecut=    50.00 Ry     beta= 0.20
     Davidson diagonalization with overlap
     ethr =  1.55E-09,  avg # of iterations =  2.0

     negative rho (up, down):  1.665E-02 1.665E-02

     total cpu time spent up to now is       60.0 secs

     total energy              =   -6966.76106308 Ry
     estimated scf accuracy    <       0.00001046 Ry

     total magnetization       =    -0.00 Bohr mag/cell
     absolute magnetization    =     0.00 Bohr mag/cell

     iteration #  6     ecut=    50.00 Ry     beta= 0.20
     Davidson diagonalization with overlap
     ethr =  1.12E-09,  avg # of iterations =  2.0

     negative rho (up, down):  1.667E-02 1.667E-02

     total cpu time spent up to now is       61.2 secs

     total energy              =   -6966.76106455 Ry
     estimated scf accuracy    <       0.00000234 Ry

     total magnetization       =    -0.00 Bohr mag/cell
     absolute magnetization    =     0.00 Bohr mag/cell

     iteration #  7     ecut=    50.00 Ry     beta= 0.20
     Davidson diagonalization with overlap
     ethr =  2.50E-10,  avg # of iterations =  1.0

     negative rho (up, down):  1.667E-02 1.667E-02

     total cpu time spent up to now is       62.4 secs

     total energy              =   -6966.76106407 Ry
     estimated scf accuracy    <       0.00000161 Ry

     total magnetization       =    -0.00 Bohr mag/cell
     absolute magnetization    =     0.00 Bohr mag/cell

     iteration #  8     ecut=    50.00 Ry     beta= 0.20
     Davidson diagonalization with overlap
     ethr =  1.72E-10,  avg # of iterations =  3.0

     negative rho (up, down):  1.664E-02 1.664E-02

     total cpu time spent up to now is       63.7 secs

     total energy              =   -6966.76106419 Ry
     estimated scf accuracy    <       0.00000185 Ry

     total magnetization       =    -0.00 Bohr mag/cell
     absolute magnetization    =     0.00 Bohr mag/cell

     iteration #  9     ecut=    50.00 Ry     beta= 0.20
     Davidson diagonalization with overlap
     ethr =  1.72E-10,  avg # of iterations =  1.0

     negative rho (up, down):  1.609E-02 1.609E-02
 
     Magnetic moment per site  (integrated on atomic sphere of radius R)
     atom   1 (R=0.050)  charge=  3.8436  magn= -0.0000
     atom   2 (R=0.050)  charge=  3.8502  magn= -0.0000
     atom   3 (R=0.050)  charge=  3.8297  magn= -0.0000
     atom   4 (R=0.050)  charge=  3.8251  magn= -0.0000
     atom   5 (R=0.050)  charge=  3.8498  magn= -0.0000
     atom   6 (R=0.050)  charge=  3.8496  magn= -0.0000
     atom   7 (R=0.050)  charge=  3.8371  magn= -0.0000
     atom   8 (R=0.050)  charge=  3.8527  magn= -0.0000
     atom   9 (R=0.050)  charge=  3.8541  magn= -0.0000
     atom  10 (R=0.050)  charge=  3.8560  magn= -0.0000
     atom  11 (R=0.050)  charge=  3.8371  magn= -0.0000
     atom  12 (R=0.050)  charge=  3.8327  magn=  0.0000
     atom  13 (R=0.050)  charge=  3.8433  magn= -0.0000
     atom  14 (R=0.050)  charge=  3.8498  magn= -0.0000
     atom  15 (R=0.050)  charge=  3.8300  magn= -0.0000
     atom  16 (R=0.050)  charge=  3.8253  magn= -0.0000
     atom  17 (R=0.050)  charge=  3.8499  magn= -0.0000
     atom  18 (R=0.050)  charge=  3.8496  magn= -0.0000
     atom  19 (R=0.050)  charge=  3.8369  magn= -0.0000
     atom  20 (R=0.050)  charge=  3.8521  magn= -0.0000
     atom  21 (R=0.050)  charge=  3.8539  magn= -0.0000
     atom  22 (R=0.050)  charge=  3.8562  magn= -0.0000
     atom  23 (R=0.050)  charge=  3.8369  magn= -0.0000
     atom  24 (R=0.050)  charge=  3.8331  magn= -0.0000
     atom  25 (R=0.050)  charge=  3.8435  magn= -0.0000
     atom  26 (R=0.050)  charge=  3.8503  magn= -0.0000
     atom  27 (R=0.050)  charge=  3.8295  magn= -0.0000
     atom  28 (R=0.050)  charge=  3.8252  magn= -0.0000
     atom  29 (R=0.050)  charge=  3.8503  magn= -0.0000
     atom  30 (R=0.050)  charge=  3.8500  magn= -0.0000
     atom  31 (R=0.050)  charge=  3.8375  magn= -0.0000
     atom  32 (R=0.050)  charge=  3.8521  magn= -0.0000
     atom  33 (R=0.050)  charge=  3.8539  magn= -0.0000
     atom  34 (R=0.050)  charge=  3.8559  magn= -0.0000
     atom  35 (R=0.050)  charge=  3.8374  magn= -0.0000
     atom  36 (R=0.050)  charge=  3.8329  magn= -0.0000
     atom  37 (R=0.050)  charge= 10.4379  magn=  0.0000
     atom  38 (R=0.050)  charge= 10.4038  magn=  0.0000
     atom  39 (R=0.050)  charge= 10.4226  magn= -0.0000
     atom  40 (R=0.050)  charge= 10.4270  magn=  0.0000
     atom  41 (R=0.050)  charge= 10.4225  magn= -0.0000
     atom  42 (R=0.050)  charge= 10.4328  magn=  0.0000
     atom  43 (R=0.050)  charge= 10.4205  magn= -0.0000
     atom  44 (R=0.050)  charge= 10.4168  magn=  0.0000
     atom  45 (R=0.050)  charge= 10.4372  magn= -0.0000
     atom  46 (R=0.050)  charge= 10.4332  magn=  0.0000
     atom  47 (R=0.050)  charge= 10.4253  magn=  0.0000
     atom  48 (R=0.050)  charge= 10.4138  magn= -0.0000
     atom  49 (R=0.050)  charge= 10.4378  magn=  0.0000
     atom  50 (R=0.050)  charge= 10.4036  magn=  0.0000
     atom  51 (R=0.050)  charge= 10.4227  magn=  0.0000
     atom  52 (R=0.050)  charge= 10.4268  magn=  0.0000
     atom  53 (R=0.050)  charge= 10.4228  magn=  0.0000
     atom  54 (R=0.050)  charge= 10.4330  magn=  0.0000
     atom  55 (R=0.050)  charge= 10.4205  magn= -0.0000
     atom  56 (R=0.050)  charge= 10.4169  magn=  0.0000
     atom  57 (R=0.050)  charge= 10.4374  magn=  0.0000
     atom  58 (R=0.050)  charge= 10.4332  magn=  0.0000
     atom  59 (R=0.050)  charge= 10.4253  magn=  0.0000
     atom  60 (R=0.050)  charge= 10.4136  magn=  0.0000
     atom  61 (R=0.050)  charge= 10.4380  magn=  0.0000
     atom  62 (R=0.050)  charge= 10.4036  magn=  0.0000
     atom  63 (R=0.050)  charge= 10.4226  magn=  0.0000
     atom  64 (R=0.050)  charge= 10.4266  magn= -0.0000
     atom  65 (R=0.050)  charge= 10.4222  magn=  0.0000
     atom  66 (R=0.050)  charge= 10.4330  magn=  0.0000
     atom  67 (R=0.050)  charge= 10.4203  magn= -0.0000
     atom  68 (R=0.050)  charge= 10.4167  magn=  0.0000
     atom  69 (R=0.050)  charge= 10.4369  magn=  0.0000
     atom  70 (R=0.050)  charge= 10.4331  magn=  0.0000
     atom  71 (R=0.050)  charge= 10.4252  magn=  0.0000
     atom  72 (R=0.050)  charge= 10.4136  magn= -0.0000
     atom  73 (R=0.050)  charge=  3.8406  magn= -0.0000
     atom  74 (R=0.050)  charge=  3.8406  magn= -0.0000
     atom  75 (R=0.050)  charge=  3.8342  magn= -0.0000
     atom  76 (R=0.050)  charge=  3.8516  magn=  0.0000
     atom  77 (R=0.050)  charge=  3.8501  magn= -0.0000
     atom  78 (R=0.050)  charge=  3.8500  magn= -0.0000
     atom  79 (R=0.050)  charge=  3.8366  magn= -0.0000
     atom  80 (R=0.050)  charge=  3.8542  magn=  0.0000
     atom  81 (R=0.050)  charge=  3.8516  magn= -0.0000
     atom  82 (R=0.050)  charge=  3.8325  magn= -0.0000
     atom  83 (R=0.050)  charge=  3.8419  magn= -0.0000
     atom  84 (R=0.050)  charge=  3.8363  magn=  0.0000
     atom  85 (R=0.050)  charge=  3.8406  magn= -0.0000
     atom  86 (R=0.050)  charge=  3.8406  magn= -0.0000
     atom  87 (R=0.050)  charge=  3.8340  magn= -0.0000
     atom  88 (R=0.050)  charge=  3.8519  magn=  0.0000
     atom  89 (R=0.050)  charge=  3.8502  magn= -0.0000
     atom  90 (R=0.050)  charge=  3.8499  magn= -0.0000
     atom  91 (R=0.050)  charge=  3.8370  magn= -0.0000
     atom  92 (R=0.050)  charge=  3.8546  magn= -0.0000
     atom  93 (R=0.050)  charge=  3.8520  magn= -0.0000
     atom  94 (R=0.050)  charge=  3.8325  magn= -0.0000
     atom  95 (R=0.050)  charge=  3.8414  magn= -0.0000
     atom  96 (R=0.050)  charge=  3.8363  magn= -0.0000
     atom  97 (R=0.050)  charge=  3.8408  magn= -0.0000
     atom  98 (R=0.050)  charge=  3.8399  magn= -0.0000
     atom  99 (R=0.050)  charge=  3.8337  magn= -0.0000
     atom 100 (R=0.050)  charge=  3.8515  magn=  0.0000
     atom 101 (R=0.050)  charge=  3.8497  magn= -0.0000
     atom 102 (R=0.050)  charge=  3.8495  magn= -0.0000
     atom 103 (R=0.050)  charge=  3.8369  magn= -0.0000
     atom 104 (R=0.050)  charge=  3.8541  magn= -0.0000
[...]
    -2.9713  -2.8946  -2.8912  -2.8910  -2.8531  -2.8530  -2.8018  -2.7868
    -2.7863  -2.7510  -2.6612  -2.6610  -2.6118  -2.5571  -2.5570  -2.5291
    -2.5289  -2.4915  -2.4333  -2.4332  -2.4152  -2.3808  -2.3805  -2.3537
    -2.2775  -2.2771  -2.2564  -2.2080  -2.1578  -2.1575  -2.1552  -2.1271
    -2.1266  -2.0714  -2.0413  -2.0411  -1.9883  -1.9880  -1.9799  -1.9607
    -1.9601  -1.9311  -1.9117  -1.9113  -1.8892  -1.8668  -1.8665  -1.8280
    -1.7946  -1.7941  -1.7745  -1.7675  -1.7371  -1.7365  -1.6848  -1.6845
    -1.6574  -1.6571  -1.6271  -1.6184  -1.6181  -1.5933  -1.5266  -1.4602
    -1.4598  -1.3765  -1.3763  -1.3715  -1.3463  -1.3461  -1.2669  -1.2321
    -1.1855  -1.1852  -1.1655  -1.0754  -0.8252  -0.6399  -0.6394  -0.5638
    -0.4930  -0.4929  -0.4237  -0.4215  -0.4208  -0.3109  -0.3106  -0.2611
    -0.1011  -0.1010   0.0682   0.0881   0.0884   0.1303   0.2159   0.2162
     0.2735   0.3414   0.3415   0.3885   0.4448   0.4483   0.4486   0.4842
     0.4843   0.5477   0.7474   0.7945   0.7948   0.8517   0.9060   0.9068
     0.9168   0.9982   0.9988   1.0398   1.1248   1.1254   1.2439   1.2637
     1.2638   1.3039   1.3040   1.3298   1.3581   1.3584   1.3752   1.3834
     1.3836   1.3873   1.4151   1.4154   1.4320   1.4321   1.4585   1.4805
     1.5152   1.5153   1.5383   1.5384   1.5454   1.5889   1.6179   1.6182
     1.6473   1.6476   1.6843   1.7131   1.7133   1.7191   1.7454   1.7458
     1.7711   1.7715   1.8105   1.8278   1.8282   1.8452   1.8722   1.8723
     1.9568   1.9849   1.9852   2.0593   2.0691   2.0694   2.1015   2.1016
     2.1093   2.2554

 ------ SPIN DOWN ----------


          k = 0.0000 0.0000 0.0000 (132229 PWs)   bands (ev):

   -62.4243 -62.4240 -62.4236 -62.2901 -62.2898 -62.2896 -62.2779 -62.2776
   -62.2775 -62.1772 -62.1769 -62.1766 -62.1424 -62.1422 -62.1421 -62.0537
   -62.0536 -62.0533 -62.0490 -62.0489 -62.0487 -62.0157 -62.0151 -62.0150
   -62.0041 -62.0039 -62.0037 -61.9962 -61.9962 -61.9959 -61.9621 -61.9620
   -61.9618 -61.9223 -61.9221 -61.9218 -36.7350 -36.7078 -36.7075 -36.6366
   -36.6219 -36.6218 -36.5966 -36.5965 -36.5712 -36.5711 -36.5710 -36.5665
   -36.5200 -36.5119 -36.5117 -36.5063 -36.4954 -36.4952 -36.4903 -36.4860
   -36.4858 -36.4590 -36.4549 -36.4548 -36.4441 -36.4407 -36.4404 -36.4393
   -36.4373 -36.4372 -36.4188 -36.4042 -36.4041 -36.3974 -36.3904 -36.3903
   -36.3553 -36.3549 -36.3527 -36.3440 -36.3440 -36.3401 -36.3177 -36.3145
   -36.3143 -36.2992 -36.2991 -36.2974 -36.2193 -36.2192 -36.2191 -36.2011
   -36.2006 -36.2005 -36.1850 -36.1847 -36.1840 -36.1675 -36.1674 -36.1667
   -36.1366 -36.1365 -36.1359 -36.1129 -36.1128 -36.1113 -36.0908 -36.0907
   -36.0899 -36.0811 -36.0810 -36.0772 -36.0650 -36.0649 -36.0633 -36.0550
   -36.0550 -36.0507 -36.0427 -36.0418 -36.0417 -36.0317 -36.0314 -36.0259
   -35.9863 -35.9862 -35.9822 -35.9716 -35.9716 -35.9694 -35.9521 -35.9521
   -35.9483 -35.9143 -35.9142 -35.9130 -35.9128 -35.9087 -35.8990 -35.8669
   -35.8668 -35.8612 -35.8124 -35.8123 -35.8078 -35.7746 -35.7744 -35.7626
   -15.0063 -14.7275 -14.7274 -14.6207 -14.5816 -14.3723 -14.3720 -14.3410
   -14.3409 -14.0495 -14.0486 -13.9518 -13.9362 -13.9356 -13.8445 -13.8439
   -13.8251 -13.7916 -13.7858 -13.7852 -13.7785 -13.7384 -13.7148 -13.7145
   -13.6645 -13.6640 -13.6060 -13.5868 -13.5854 -13.5852 -13.5514 -13.5512
   -13.5320 -13.5319 -13.5032 -13.5029 -13.4951 -13.4712 -13.4586 -13.4583
   -13.4307 -13.3871 -13.3867 -13.3777 -13.3580 -13.3577 -13.3112 -13.2531
   -13.2528 -13.2210 -13.1567 -13.1289 -13.1267 -13.1264 -13.0991 -13.0990
   -13.0443 -13.0348 -13.0346 -12.9984 -12.9450 -12.9450 -12.9267 -12.8364
   -12.8364 -12.7859 -12.7316 -12.7315 -12.6988 -12.6777 -12.6775 -12.6644
    -7.0128  -6.9164  -6.8601  -6.7955  -6.7498  -6.7027  -6.7025  -6.5121
    -6.5120  -6.4504  -6.4500  -6.3809  -6.3808  -6.3764  -6.2581  -6.2038
    -6.2032  -6.1672  -6.1670  -6.1265  -6.1102  -6.1099  -6.0818  -6.0815
    -6.0560  -6.0127  -6.0126  -5.9972  -5.9815  -5.9813  -5.9502  -5.8940
    -5.8880  -5.8878  -5.8671  -5.8667  -5.8451  -5.8213  -5.8209  -5.7289
    -5.7282  -5.7153  -5.6962  -5.6958  -5.6873  -5.6688  -5.6254  -5.6251
    -5.6178  -5.5692  -5.5594  -5.5591  -5.5426  -5.5420  -5.4938  -5.4935
    -5.3972  -5.3770  -5.3742  -5.3736  -5.3311  -5.3309  -5.3249  -5.2417
    -5.2417  -5.2338  -5.2070  -5.1419  -5.1417  -5.1178  -5.0622  -5.0620
    -5.0604  -5.0313  -5.0310  -5.0058  -5.0057  -4.9586  -4.9139  -4.8928
    -4.8925  -4.8406  -4.8368  -4.8367  -4.8042  -4.8040  -4.7695  -4.7396
    -4.7210  -4.7207  -4.6930  -4.6916  -4.6915  -4.6075  -4.6071  -4.5771
    -4.5771  -4.5464  -4.5174  -4.5150  -4.5149  -4.4394  -4.4220  -4.4217
    -4.4108  -4.3955  -4.3951  -4.3724  -4.3336  -4.3332  -4.3282  -4.2990
    -4.2987  -4.2889  -4.2544  -4.2271  -4.2164  -4.2162  -4.1959  -4.1955
    -4.1352  -4.0865  -4.0863  -4.0759  -4.0755  -4.0391  -4.0390  -4.0181
    -3.9571  -3.9569  -3.9156  -3.9154  -3.8689  -3.8597  -3.8596  -3.8340
    -3.8338  -3.7739  -3.7736  -3.7453  -3.7077  -3.7072  -3.6987  -3.6661
    -3.6591  -3.6588  -3.6528  -3.6007  -3.5898  -3.5862  -3.5860  -3.5001
    -3.5000  -3.4441  -3.4246  -3.4244  -3.4009  -3.3619  -3.3536  -3.3404
    -3.3403  -3.2936  -3.2934  -3.2772  -3.2229  -3.1946  -3.1945  -3.1429
    -3.1417  -3.1415  -3.0884  -3.0805  -3.0803  -3.0091  -2.9946  -2.9943
    -2.9713  -2.8946  -2.8912  -2.8910  -2.8531  -2.8530  -2.8018  -2.7868
    -2.7863  -2.7510  -2.6612  -2.6610  -2.6118  -2.5571  -2.5570  -2.5291
    -2.5289  -2.4915  -2.4333  -2.4332  -2.4152  -2.3808  -2.3805  -2.3537
    -2.2775  -2.2771  -2.2564  -2.2080  -2.1578  -2.1575  -2.1552  -2.1271
    -2.1266  -2.0714  -2.0413  -2.0411  -1.9883  -1.9880  -1.9799  -1.9607
    -1.9601  -1.9311  -1.9117  -1.9113  -1.8892  -1.8668  -1.8665  -1.8280
    -1.7946  -1.7941  -1.7745  -1.7675  -1.7371  -1.7365  -1.6848  -1.6845
    -1.6574  -1.6571  -1.6271  -1.6184  -1.6181  -1.5933  -1.5266  -1.4602
    -1.4598  -1.3765  -1.3763  -1.3715  -1.3463  -1.3461  -1.2669  -1.2321
    -1.1855  -1.1852  -1.1655  -1.0754  -0.8252  -0.6399  -0.6394  -0.5638
    -0.4930  -0.4929  -0.4237  -0.4215  -0.4208  -0.3109  -0.3106  -0.2611
    -0.1011  -0.1010   0.0682   0.0881   0.0884   0.1303   0.2159   0.2162
     0.2735   0.3414   0.3415   0.3885   0.4448   0.4483   0.4486   0.4842
     0.4843   0.5477   0.7474   0.7945   0.7948   0.8517   0.9060   0.9068
     0.9168   0.9982   0.9988   1.0398   1.1248   1.1254   1.2439   1.2637
     1.2638   1.3039   1.3040   1.3298   1.3581   1.3584   1.3752   1.3834
     1.3836   1.3873   1.4151   1.4154   1.4320   1.4321   1.4585   1.4805
     1.5152   1.5153   1.5383   1.5384   1.5454   1.5889   1.6179   1.6182
     1.6473   1.6476   1.6843   1.7131   1.7133   1.7191   1.7454   1.7458
     1.7711   1.7715   1.8105   1.8278   1.8282   1.8452   1.8722   1.8723
     1.9568   1.9849   1.9852   2.0593   2.0691   2.0694   2.1015   2.1016
     2.1093   2.2554

     the Fermi energy is    -0.9495 ev

!    total energy              =   -6966.79958087 Ry
     estimated scf accuracy    <          9.4E-09 Ry
     smearing contrib. (-TS)   =      -0.00180798 Ry
     internal energy E=F+TS    =   -6966.79777289 Ry

     The total energy is F=E-TS. E is the sum of the following terms:
     one-electron contribution =  -39101.54470562 Ry
     hartree contribution      =   19572.41564117 Ry
     xc contribution           =   -1530.75682238 Ry
     ewald contribution        =   14094.34615138 Ry
     DFT-D3 Dispersion         =      -1.25803744 Ry
     one-center paw contrib.   =       0.00000000 Ry

     total magnetization       =    -0.00 Bohr mag/cell
     absolute magnetization    =     0.00 Bohr mag/cell

     convergence has been achieved in  27 iterations

     negative rho (up, down):  1.641E-02 1.641E-02

     Forces acting on atoms (cartesian axes, Ry/au):

     atom    1 type  2   force =     0.00021045    0.00043557    0.00008769
     atom    2 type  2   force =     0.00005770    0.00011968    0.00002894
     atom    3 type  2   force =    -0.00049097    0.00034839    0.00019586
     atom    4 type  2   force =     0.00001004    0.00001087   -0.00011106
     atom    5 type  2   force =    -0.00008548    0.00006839    0.00049128
     atom    6 type  2   force =     0.00069557    0.00063485    0.00053891
     atom    7 type  2   force =    -0.00041196   -0.00049916   -0.00022502
     atom    8 type  2   force =     0.00031791   -0.00034040    0.00036635
     atom    9 type  2   force =     0.00004074    0.00013669   -0.00023645
     atom   10 type  2   force =    -0.00018201    0.00012529   -0.00026318
     atom   11 type  2   force =    -0.00013526    0.00006265    0.00045739
     atom   12 type  2   force =    -0.00035722    0.00048154    0.00042013
     atom   13 type  2   force =     0.00025529    0.00044811    0.00009075
     atom   14 type  2   force =     0.00003140    0.00011201    0.00003103
     atom   15 type  2   force =    -0.00046729    0.00031727    0.00022255
     atom   16 type  2   force =    -0.00002883   -0.00001050   -0.00011386
     atom   17 type  2   force =    -0.00010467    0.00005818    0.00053240
     atom   18 type  2   force =     0.00065520    0.00060798    0.00055219
     atom   19 type  2   force =    -0.00042028   -0.00048240   -0.00017664
     atom   20 type  2   force =     0.00032826   -0.00035342    0.00038356
     atom   21 type  2   force =     0.00005069    0.00012556   -0.00022060
     atom   22 type  2   force =    -0.00022704    0.00012143   -0.00015338
     atom   23 type  2   force =    -0.00014472    0.00001277    0.00043049
     atom   24 type  2   force =    -0.00039557    0.00044664    0.00035150
     atom   25 type  2   force =     0.00022463    0.00046756    0.00009122
     atom   26 type  2   force =     0.00001464    0.00011895    0.00000709
     atom   27 type  2   force =    -0.00054617    0.00028165    0.00018218
     atom   28 type  2   force =    -0.00003209    0.00000419   -0.00009964
     atom   29 type  2   force =    -0.00010510    0.00004305    0.00045525
     atom   30 type  2   force =     0.00067522    0.00066242    0.00053478
     atom   31 type  2   force =    -0.00039969   -0.00045844   -0.00027375
     atom   32 type  2   force =     0.00034037   -0.00036686    0.00033902
     atom   33 type  2   force =     0.00003978    0.00013136   -0.00027364
     atom   34 type  2   force =    -0.00021480    0.00009808   -0.00025861
     atom   35 type  2   force =    -0.00011208    0.00003310    0.00038360
     atom   36 type  2   force =    -0.00036390    0.00046723    0.00036386
     atom   37 type  1   force =     0.00014505   -0.00002808    0.00026842
     atom   38 type  1   force =    -0.00001497    0.00020585   -0.00046507
     atom   39 type  1   force =    -0.00007635    0.00017946   -0.00020325
     atom   40 type  1   force =    -0.00013888   -0.00015677   -0.00035476
     atom   41 type  1   force =     0.00015863   -0.00031458   -0.00009339
     atom   42 type  1   force =     0.00006777    0.00070426    0.00069681
     atom   43 type  1   force =     0.00047504   -0.00013886    0.00034359
     atom   44 type  1   force =     0.00026169   -0.00027446    0.00015585
     atom   45 type  1   force =     0.00001412   -0.00011134   -0.00031934
     atom   46 type  1   force =    -0.00021138    0.00002178   -0.00022790
     atom   47 type  1   force =     0.00013162   -0.00013080    0.00013441
     atom   48 type  1   force =    -0.00008778   -0.00039666    0.00025886
     atom   49 type  1   force =     0.00012976   -0.00001643    0.00029257
     atom   50 type  1   force =    -0.00002942    0.00018481   -0.00039104
     atom   51 type  1   force =    -0.00007903    0.00021599   -0.00015727
     atom   52 type  1   force =    -0.00011961   -0.00016777   -0.00034342
     atom   53 type  1   force =     0.00016441   -0.00029699   -0.00009644
     atom   54 type  1   force =     0.00009544    0.00067074    0.00071356
     atom   55 type  1   force =     0.00047477   -0.00008012    0.00033855
     atom   56 type  1   force =     0.00028485   -0.00028611    0.00018671
     atom   57 type  1   force =     0.00002255   -0.00013667   -0.00030954
     atom   58 type  1   force =    -0.00021449    0.00007316   -0.00022362
     atom   59 type  1   force =     0.00010261   -0.00006970    0.00012730
     atom   60 type  1   force =    -0.00008553   -0.00035745    0.00017207
     atom   61 type  1   force =     0.00013561    0.00004376    0.00025596
     atom   62 type  1   force =    -0.00001165    0.00020976   -0.00046021
     atom   63 type  1   force =    -0.00003381    0.00018514   -0.00012360
     atom   64 type  1   force =    -0.00014162   -0.00012371   -0.00035818
     atom   65 type  1   force =     0.00014315   -0.00024976   -0.00013026
     atom   66 type  1   force =     0.00004696    0.00062907    0.00065090
     atom   67 type  1   force =     0.00048261   -0.00013390    0.00026476
     atom   68 type  1   force =     0.00025418   -0.00029263    0.00018424
     atom   69 type  1   force =     0.00001787   -0.00010353   -0.00031393
     atom   70 type  1   force =    -0.00021571    0.00002782   -0.00024145
     atom   71 type  1   force =     0.00012325   -0.00014426    0.00009166
     atom   72 type  1   force =    -0.00013726   -0.00038636    0.00018873
     atom   73 type  2   force =    -0.00052966   -0.00005435   -0.00017993
     atom   74 type  2   force =     0.00012786    0.00015367   -0.00066632
     atom   75 type  2   force =    -0.00007788   -0.00003655   -0.00048648
     atom   76 type  2   force =    -0.00031155   -0.00018847   -0.00018622
     atom   77 type  2   force =     0.00020495   -0.00015919    0.00007158
     atom   78 type  2   force =     0.00028180    0.00010619    0.00041249
     atom   79 type  2   force =     0.00036216   -0.00019751   -0.00031904
     atom   80 type  2   force =    -0.00008152    0.00007494   -0.00031899
     atom   81 type  2   force =    -0.00057317   -0.00007309   -0.00030100
     atom   82 type  2   force =     0.00007658   -0.00035578   -0.00017526
     atom   83 type  2   force =    -0.00014562   -0.00012172    0.00004630
     atom   84 type  2   force =     0.00025144   -0.00023913    0.00035123
     atom   85 type  2   force =    -0.00052716   -0.00003305   -0.00010188
     atom   86 type  2   force =     0.00014269    0.00016312   -0.00062426
     atom   87 type  2   force =    -0.00005517   -0.00005725   -0.00046908
     atom   88 type  2   force =    -0.00030406   -0.00014525   -0.00019700
     atom   89 type  2   force =     0.00017189   -0.00017124    0.00005778
     atom   90 type  2   force =     0.00033172    0.00006647    0.00041960
     atom   91 type  2   force =     0.00043731   -0.00017242   -0.00027719
     atom   92 type  2   force =    -0.00005182    0.00005146   -0.00030040
     atom   93 type  2   force =    -0.00054954   -0.00006917   -0.00031070
     atom   94 type  2   force =     0.00005443   -0.00038699   -0.00025844
     atom   95 type  2   force =    -0.00016608   -0.00012858    0.00001044
     atom   96 type  2   force =     0.00033620   -0.00027511    0.00027201
     atom   97 type  2   force =    -0.00053457   -0.00009628   -0.00014672
     atom   98 type  2   force =     0.00012662    0.00014464   -0.00069107
     atom   99 type  2   force =    -0.00006659   -0.00002412   -0.00051790
     atom  100 type  2   force =    -0.00028802   -0.00014202   -0.00021620
     atom  101 type  2   force =     0.00020838   -0.00016455    0.00001917
     atom  102 type  2   force =     0.00028765    0.00006405    0.00032986
     atom  103 type  2   force =     0.00041274   -0.00018258   -0.00031323
     atom  104 type  2   force =    -0.00004520    0.00004214   -0.00031162
     atom  105 type  2   force =    -0.00052757   -0.00009300   -0.00029284
     atom  106 type  2   force =     0.00006915   -0.00034668   -0.00020716
     atom  107 type  2   force =    -0.00018141   -0.00010328   -0.00003543
     atom  108 type  2   force =     0.00027582   -0.00027422    0.00026942

     Total force =     0.005243     Total SCF correction =     0.000208


     Computing stress (Cartesian axis) and pressure


     negative rho (up, down):  1.641E-02 1.641E-02
          total   stress  (Ry/bohr**3)                   (kbar)     P=       -0.18
  -0.00000039   0.00001949  -0.00000002           -0.06        2.87       -0.00
   0.00001949   0.00000061  -0.00000054            2.87        0.09       -0.08
  -0.00000002  -0.00000054  -0.00000390           -0.00       -0.08       -0.57

     Message from routine punch:
     Nothing written, as per user request (disk_io='none')
 
     init_run     :     15.89s CPU     16.66s WALL (       2 calls)
     electrons    :    401.43s CPU    328.76s WALL (      18 calls)
     update_pot   :     10.07s CPU      4.12s WALL (      15 calls)
     forces       :     20.21s CPU      9.15s WALL (      18 calls)
     force_dftd3  :      0.97s CPU      0.92s WALL (      18 calls)
     stress       :    145.55s CPU    145.65s WALL (      18 calls)
     stres_dftd3  :      1.49s CPU      1.44s WALL (      18 calls)

     Called by init_run:
     wfcinit      :      0.44s CPU      0.95s WALL (       2 calls)
     potinit      :      3.76s CPU      3.72s WALL (       3 calls)
     hinit0       :     10.61s CPU     10.03s WALL (       2 calls)

     Called by electrons:
     c_bands      :    123.22s CPU    124.40s WALL (     258 calls)
     sum_band     :     55.96s CPU     56.42s WALL (     258 calls)
     v_of_rho     :     18.95s CPU     17.12s WALL (     264 calls)
     newd         :     28.80s CPU     27.71s WALL (     264 calls)
                                       24.30s GPU  (     263 calls)
     PAW_pot      :      5.17s CPU      5.18s WALL (     279 calls)
     mix_rho      :     90.50s CPU     45.43s WALL (     258 calls)
     energy_dftd3 :      0.53s CPU      0.53s WALL (      18 calls)

     Called by c_bands:
     init_us_2    :      2.02s CPU      2.02s WALL (     533 calls)
     regterg      :    111.12s CPU    112.14s WALL (     259 calls)

     Called by *egterg:
     rdiaghg      :     17.45s CPU     17.61s WALL (    1045 calls)
                                       17.61s GPU  (    1045 calls)
     h_psi        :     68.22s CPU     69.36s WALL (    1076 calls)
                                       69.35s GPU  (    1076 calls)
     s_psi        :      0.76s CPU      0.77s WALL (    1076 calls)
     g_psi        :      0.00s CPU      0.41s WALL (     815 calls)
                                        0.41s GPU  (     815 calls)

     Called by h_psi:
     h_psi:calbec :      6.06s CPU      6.42s WALL (    1076 calls)
                                        6.41s GPU  (    1076 calls)
     vloc_psi     :     57.07s CPU     57.82s WALL (    1076 calls)
                                       57.81s GPU  (    1076 calls)
     add_vuspsi   :      0.58s CPU      4.33s WALL (    1076 calls)
                                        4.32s GPU  (    1076 calls)

     General routines
     calbec       :     35.45s CPU     12.99s WALL (    1439 calls)
     fft          :     53.06s CPU     33.95s WALL (    5353 calls)
                                        4.49s GPU  (    4825 calls)
     ffts         :     38.99s CPU     15.84s WALL (   28830 calls)
                                        7.78s GPU  (   28302 calls)
     fftw         :     37.95s CPU     57.97s WALL (   96264 calls)
                                       57.24s GPU  (   96264 calls)
     interpolate  :     73.22s CPU     43.47s WALL (     528 calls)
 
     Parallel routines
 
     PWSCF        :  11m40.85s CPU   9m46.24s WALL

 
   This run was terminated on:  21:36: 2  12Nov2025            

=------------------------------------------------------------------------------=
   JOB DONE.
=------------------------------------------------------------------------------=
