
     Program PWSCF v.7.3.1 starts on 12Nov2025 at 17:12:25 

     This program is part of the open-source Quantum ESPRESSO suite
     for quantum simulation of materials; please cite
         "P. Giannozzi et al., J. Phys.:Condens. Matter 21 395502 (2009);
         "P. Giannozzi et al., J. Phys.:Condens. Matter 29 465901 (2017);
         "P. Giannozzi et al., J. Chem. Phys. 152 154105 (2020);
          URL http://www.quantum-espresso.org", 
     in publications or presentations arising from this work. More details at
     http://www.quantum-espresso.org/quote

     Parallel version (MPI & OpenMP), running on      32 processor cores
     Number of MPI processes:                 4
     Threads/MPI process:                     8

     MPI processes distributed on     1 nodes
     504296 MiB available memory on the printing compute node when the environment starts
 
     Waiting for input...
     Reading input from standard input

     Current dimensions of program PWSCF are:
     Max number of different atomic species (ntypx) = 10
     Max number of k-points (npk) =  40000
     Max angular momentum in pseudopotentials (lmaxx) =  4
     file O.pbe-n-kjpaw_psl.1.0.0.UPF: wavefunction(s)  2S 2P renormalized
     file H.pbe-kjpaw_psl.1.0.0.UPF: wavefunction(s)  1S renormalized

     gamma-point specific algorithms are used
 
     K-points division:     npool     =       2
     R & G space division:  proc/nbgrp/npool/nimage =       2
     Subspace diagonalization in iterative solution of the eigenvalue problem:
     a serial algorithm will be used

 
     Parallelization info
     --------------------
     sticks:   dense  smooth     PW     G-vecs:    dense   smooth      PW
     Min       23082   11538   2885              3794045  1341403  167663
     Max       23083   11541   2886              3794046  1341406  167666
     Sum       46165   23079   5771              7588091  2682809  335329
 
     Using Slab Decomposition
 


     bravais-lattice index     =            0
     lattice parameter (alat)  =      37.7945  a.u.
     unit-cell volume          =   56166.3880 (a.u.)^3
     number of atoms/cell      =            1
     number of atomic types    =            4
     number of electrons       =         1.00
     number of Kohn-Sham states=            5
     kinetic-energy cutoff     =      50.0000  Ry
     charge density cutoff     =     400.0000  Ry
     scf convergence threshold =      1.0E-06
     mixing beta               =       0.2000
     number of iterations used =            8  local-TF  mixing
     Exchange-correlation= SLA  PW   PBX  PBC
                           (   1   4   3   4   0   0   0)

     GPU acceleration is ACTIVE.  4 visible GPUs per MPI rank
     GPU-aware MPI enabled


     celldm(1)=  37.794522  celldm(2)=   0.000000  celldm(3)=   0.000000
     celldm(4)=   0.000000  celldm(5)=   0.000000  celldm(6)=   0.000000

     crystal axes: (cart. coord. in units of alat)
               a(1) = (   1.000000   0.000000   0.000000 )  
               a(2) = (   0.000000   1.015000   0.000000 )  
               a(3) = (   0.000000   0.000000   1.025000 )  

     reciprocal axes: (cart. coord. in units 2 pi/alat)
               b(1) = (  1.000000  0.000000  0.000000 )  
               b(2) = (  0.000000  0.985222  0.000000 )  
               b(3) = (  0.000000  0.000000  0.975610 )  


     PseudoPot. # 1 for Mo read from file:
     /leonardo/home/userexternal/apacini0/PSEUDO/Mo.pbe-spn-rrkjus_psl.0.2.UPF
     MD5 check sum: fc6921ed78563293cf4f0ffad66b730e
     Pseudo is Ultrasoft + core correction, Zval = 14.0
     Generated using "atomic" code by A. Dal Corso  v.5.0.2 svn rev. 9415
     Using radial grid of 1229 points,  6 beta functions with: 
                l(1) =   0
                l(2) =   0
                l(3) =   1
                l(4) =   1
                l(5) =   2
                l(6) =   2
     Q(r) pseudized with 0 coefficients 


     PseudoPot. # 2 for S  read from file:
     /leonardo/home/userexternal/apacini0/PSEUDO/S.pbe-n-rrkjus_psl.0.1.UPF
     MD5 check sum: bcce8fa2324dad47c8296339772e3939
     Pseudo is Ultrasoft + core correction, Zval =  6.0
     Generated using "atomic" code by A. Dal Corso  v.5.0.2 svn rev. 9415
     Using radial grid of 1151 points,  4 beta functions with: 
                l(1) =   0
                l(2) =   0
                l(3) =   1
                l(4) =   1
     Q(r) pseudized with 0 coefficients 


     PseudoPot. # 3 for O  read from file:
     /leonardo/home/userexternal/apacini0/PSEUDO/O.pbe-n-kjpaw_psl.1.0.0.UPF
     MD5 check sum: e99d9cef9b487d1ca56f5b95ecd0fd7a
     Pseudo is Projector augmented-wave + core cor, Zval =  6.0
     Generated using &quot;atomic&quot; code by A. Dal Corso  v.6.3
     Shape of augmentation charge: PSQ
     Using radial grid of 1095 points,  4 beta functions with: 
                l(1) =   0
                l(2) =   0
                l(3) =   1
                l(4) =   1
     Q(r) pseudized with 0 coefficients 


     PseudoPot. # 4 for H  read from file:
     /leonardo/home/userexternal/apacini0/PSEUDO/H.pbe-kjpaw_psl.1.0.0.UPF
     MD5 check sum: d81a744832360e4a8af0b0b5b123bc2a
     Pseudo is Projector augmented-wave, Zval =  1.0
     Generated using &quot;atomic&quot; code by A. Dal Corso  v.6.3MaX
     Shape of augmentation charge: PSQ
     Using radial grid of  929 points,  2 beta functions with: 
                l(1) =   0
                l(2) =   0
     Q(r) pseudized with 0 coefficients 


     atomic species   valence    mass     pseudopotential
     Mo               14.00    95.95000     Mo( 1.00)
     S                 6.00    32.06500     S ( 1.00)
     O                 6.00    15.99900     O ( 1.00)
     H                 1.00     1.00800     H ( 1.00)

     Starting magnetic structure 
     atomic species   magnetization
     Mo              0.200
     S               0.200
     O               0.200
     H               0.200

     No symmetry found



   Cartesian axes

     site n.     atom                  positions (alat units)
         1        H      tau(   1) = (   0.0000000   0.0000000   0.0000000  )

     --------------------------------------------
     DFT-D3 Dispersion Correction (3-body terms):
     --------------------------------------------
       Reference C6 values for interpolation: 

         atom   Coordination number   C6
         H          0.912             6.05
         H          0.000            15.18
         O          0.000            31.01
         O          0.993            25.63
         O          1.989            20.74
         S          0.000           268.01
         S          0.995           261.99
         S          1.990           251.62
         Mo         0.000          1691.79
         Mo         1.942          1004.01
         Mo        11.056           674.22

       Values used:

         atom   Coordination number  R0_AB[au]  C6      C8
         H          0.000            2.062     14.79    178.78

         Molecular C6 ( Ry / a.u.^6 ) =        14.79


     number of k points=     1  Gaussian smearing, width (Ry)=  0.0073
                       cart. coord. in units 2pi/alat
        k(    1) = (   0.0000000   0.0000000   0.0000000), wk =   1.0000000

     Dense  grid:  3794046 G-vectors     FFT dimensions: ( 243, 250, 250)

     Smooth grid:  1341405 G-vectors     FFT dimensions: ( 180, 180, 180)

     Estimated max dynamical RAM per process >       4.99 GB

     Estimated total dynamical RAM >      18.15 GB
     Generating pointlists ...
     new r_m :   0.4125 (alat units) 15.5902 (a.u.) for type    1
     new r_m :   0.4125 (alat units) 15.5902 (a.u.) for type    2
     new r_m :   0.4125 (alat units) 15.5902 (a.u.) for type    3
     new r_m :   0.4125 (alat units) 15.5902 (a.u.) for type    4

     Initial potential from superposition of free atoms

     starting charge       1.0000, renormalised to       1.0000

     negative rho (up, down):  7.840E-05 5.227E-05
     Starting wfcs are    1 randomized atomic wfcs +    4 random wfcs
     Checking if some PAW data can be deallocated... 

     total cpu time spent up to now is        5.1 secs

     per-process dynamical memory:  1346.5 Mb

     Self-consistent Calculation

     iteration #  1     ecut=    50.00 Ry     beta= 0.20
     Davidson diagonalization with overlap
     ethr =  1.00E-02,  avg # of iterations =  6.0

     Threshold (ethr) on eigenvalues was too large:
     Diagonalizing with lowered threshold

     Davidson diagonalization with overlap
     ethr =  7.08E-04,  avg # of iterations =  3.0

     negative rho (up, down):  1.516E-05 1.713E-06

     total cpu time spent up to now is        7.5 secs

     total energy              =      -0.95894809 Ry
     estimated scf accuracy    <       0.00714904 Ry

     total magnetization       =     1.00 Bohr mag/cell
     absolute magnetization    =     1.00 Bohr mag/cell

     iteration #  2     ecut=    50.00 Ry     beta= 0.20
     Davidson diagonalization with overlap
     ethr =  7.15E-04,  avg # of iterations =  1.0

     total cpu time spent up to now is        9.1 secs

     total energy              =      -0.99748454 Ry
     estimated scf accuracy    <       0.00495044 Ry

     total magnetization       =     1.00 Bohr mag/cell
     absolute magnetization    =     1.00 Bohr mag/cell

     iteration #  3     ecut=    50.00 Ry     beta= 0.20
     Davidson diagonalization with overlap
     ethr =  4.95E-04,  avg # of iterations =  2.0

     negative rho (up, down):  1.554E-09 7.570E-04

     total cpu time spent up to now is       10.8 secs

     total energy              =      -1.00885196 Ry
     estimated scf accuracy    <       0.00086663 Ry

     total magnetization       =     1.00 Bohr mag/cell
     absolute magnetization    =     1.00 Bohr mag/cell

     iteration #  4     ecut=    50.00 Ry     beta= 0.20
     Davidson diagonalization with overlap
     ethr =  8.67E-05,  avg # of iterations = 18.5

     negative rho (up, down):  1.015E-09 9.291E-04

     total cpu time spent up to now is       12.6 secs

     total energy              =      -1.01082638 Ry
     estimated scf accuracy    <       0.00048809 Ry

     total magnetization       =     1.00 Bohr mag/cell
     absolute magnetization    =     1.00 Bohr mag/cell

     iteration #  5     ecut=    50.00 Ry     beta= 0.20
     Davidson diagonalization with overlap
     ethr =  4.88E-05,  avg # of iterations =  2.0

     negative rho (up, down):  5.429E-04 1.785E-03

     total cpu time spent up to now is       14.3 secs

     total energy              =      -1.01202218 Ry
     estimated scf accuracy    <       0.00109872 Ry

     total magnetization       =     1.00 Bohr mag/cell
     absolute magnetization    =     1.00 Bohr mag/cell

     iteration #  6     ecut=    50.00 Ry     beta= 0.20
     Davidson diagonalization with overlap
     ethr =  4.88E-05,  avg # of iterations =  3.5

     negative rho (up, down):  1.480E-04 2.611E-03

     total cpu time spent up to now is       16.0 secs

     total energy              =      -1.01316058 Ry
     estimated scf accuracy    <       0.00301278 Ry

     total magnetization       =     1.00 Bohr mag/cell
     absolute magnetization    =     1.00 Bohr mag/cell

     iteration #  7     ecut=    50.00 Ry     beta= 0.20
     Davidson diagonalization with overlap
     ethr =  4.88E-05,  avg # of iterations =  1.5

     negative rho (up, down):  9.290E-05 2.909E-03

     total cpu time spent up to now is       17.8 secs

     total energy              =      -1.01451118 Ry
     estimated scf accuracy    <       0.00224242 Ry

     total magnetization       =     1.00 Bohr mag/cell
     absolute magnetization    =     1.00 Bohr mag/cell

     iteration #  8     ecut=    50.00 Ry     beta= 0.20
     Davidson diagonalization with overlap
     ethr =  4.88E-05,  avg # of iterations =  1.0

     negative rho (up, down):  8.246E-05 2.971E-03

     total cpu time spent up to now is       19.5 secs

     total energy              =      -1.01579162 Ry
     estimated scf accuracy    <       0.00198438 Ry

     total magnetization       =     1.00 Bohr mag/cell
     absolute magnetization    =     1.00 Bohr mag/cell

     iteration #  9     ecut=    50.00 Ry     beta= 0.20
     Davidson diagonalization with overlap
     ethr =  4.88E-05,  avg # of iterations =  1.0

     negative rho (up, down):  1.478E-04 2.969E-03

     total cpu time spent up to now is       21.4 secs

     total energy              =      -1.01524107 Ry
     estimated scf accuracy    <       0.00201364 Ry

     total magnetization       =     1.00 Bohr mag/cell
     absolute magnetization    =     1.00 Bohr mag/cell

     iteration # 10     ecut=    50.00 Ry     beta= 0.20
     Davidson diagonalization with overlap
     ethr =  4.88E-05,  avg # of iterations =  1.0

     negative rho (up, down):  2.381E-04 4.826E-03

     total cpu time spent up to now is       23.2 secs

     total energy              =      -1.02304846 Ry
     estimated scf accuracy    <       0.00175528 Ry

     total magnetization       =     1.00 Bohr mag/cell
     absolute magnetization    =     1.00 Bohr mag/cell

     iteration # 11     ecut=    50.00 Ry     beta= 0.20
     Davidson diagonalization with overlap
     ethr =  4.88E-05,  avg # of iterations =  2.0

     negative rho (up, down):  3.619E-04 5.351E-03

     total cpu time spent up to now is       25.0 secs

     total energy              =      -1.02216642 Ry
     estimated scf accuracy    <       0.00030785 Ry

     total magnetization       =     1.00 Bohr mag/cell
     absolute magnetization    =     1.00 Bohr mag/cell

     iteration # 12     ecut=    50.00 Ry     beta= 0.20
     Davidson diagonalization with overlap
     ethr =  3.08E-05,  avg # of iterations =  1.5

     negative rho (up, down):  2.905E-04 2.847E-03

     total cpu time spent up to now is       26.8 secs

     total energy              =      -1.01539902 Ry
     estimated scf accuracy    <       0.00005102 Ry

     total magnetization       =     1.00 Bohr mag/cell
     absolute magnetization    =     1.00 Bohr mag/cell

     iteration # 13     ecut=    50.00 Ry     beta= 0.20
     Davidson diagonalization with overlap
     ethr =  5.10E-06,  avg # of iterations = 15.5

     negative rho (up, down):  2.560E-04 1.001E-03

     total cpu time spent up to now is       28.6 secs

     total energy              =      -1.00966868 Ry
     estimated scf accuracy    <       0.00000462 Ry

     total magnetization       =     1.00 Bohr mag/cell
     absolute magnetization    =     1.00 Bohr mag/cell

     iteration # 14     ecut=    50.00 Ry     beta= 0.20
     Davidson diagonalization with overlap
     c_bands:  1 eigenvalues not converged
     ethr =  4.62E-07,  avg # of iterations = 14.5

     negative rho (up, down):  2.274E-04 4.307E-04

     total cpu time spent up to now is       30.5 secs

     total energy              =      -1.00429848 Ry
     estimated scf accuracy    <       0.00001697 Ry

     total magnetization       =     1.00 Bohr mag/cell
     absolute magnetization    =     1.00 Bohr mag/cell

     iteration # 15     ecut=    50.00 Ry     beta= 0.20
     Davidson diagonalization with overlap
     ethr =  4.62E-07,  avg # of iterations =  7.0

     negative rho (up, down):  1.482E-04 3.647E-04

     total cpu time spent up to now is       32.4 secs

     total energy              =      -1.00687639 Ry
     estimated scf accuracy    <       0.00000257 Ry

     total magnetization       =     1.00 Bohr mag/cell
     absolute magnetization    =     1.00 Bohr mag/cell

     iteration # 16     ecut=    50.00 Ry     beta= 0.20
     Davidson diagonalization with overlap
     ethr =  2.57E-07,  avg # of iterations =  2.5

     negative rho (up, down):  1.170E-04 3.252E-04

     total cpu time spent up to now is       34.2 secs

     total energy              =      -1.01020799 Ry
     estimated scf accuracy    <       0.00000112 Ry

     total magnetization       =     1.00 Bohr mag/cell
     absolute magnetization    =     1.00 Bohr mag/cell

     iteration # 17     ecut=    50.00 Ry     beta= 0.20
     Davidson diagonalization with overlap
     ethr =  1.12E-07,  avg # of iterations = 11.5

     negative rho (up, down):  8.789E-05 3.701E-15
 
     Magnetic moment per site  (integrated on atomic sphere of radius R)
     atom   1 (R=0.413)  charge=  1.0000  magn=  1.0000

     total cpu time spent up to now is       35.6 secs

     End of self-consistent calculation

 ------ SPIN UP ------------


          k = 0.0000 0.0000 0.0000 (167665 PWs)   bands (ev):

    -7.6876  -0.1564   0.1089   0.1882   0.1954

 ------ SPIN DOWN ----------


          k = 0.0000 0.0000 0.0000 (167665 PWs)   bands (ev):

    -0.8289  -0.1010   0.2431   0.2496   0.2523

     the Fermi energy is    -3.7177 ev

!    total energy              =      -1.00909056 Ry
     total all-electron energy =        -1.009086 Ry
     estimated scf accuracy    <       0.00000076 Ry
     smearing contrib. (-TS)   =      -0.00000000 Ry
     internal energy E=F+TS    =      -1.00909056 Ry

     The total energy is F=E-TS. E is the sum of the following terms:
     one-electron contribution =      -0.85072678 Ry
     hartree contribution      =       0.54389690 Ry
     xc contribution           =      -0.62798098 Ry
     ewald contribution        =      -0.07407606 Ry
     DFT-D3 Dispersion         =      -0.00000002 Ry
     one-center paw contrib.   =      -0.00020362 Ry

     total magnetization       =     1.00 Bohr mag/cell
     absolute magnetization    =     1.00 Bohr mag/cell

     convergence has been achieved in  17 iterations

     negative rho (up, down):  8.789E-05 3.701E-15

     Forces acting on atoms (cartesian axes, Ry/au):

     atom    1 type  4   force =     0.00000000    0.00000000    0.00000000

     Total force =     0.000000     Total SCF correction =     0.101623
     Message from routine punch:
     Nothing written, as per user request (disk_io='none')
 
     init_run     :      3.76s CPU      4.60s WALL (       1 calls)
     electrons    :     38.73s CPU     30.52s WALL (       1 calls)
     forces       :      0.35s CPU      0.36s WALL (       1 calls)
     force_dftd3  :      0.00s CPU      0.00s WALL (       1 calls)

     Called by init_run:
     wfcinit      :      0.01s CPU      0.32s WALL (       1 calls)
     potinit      :      2.04s CPU      2.12s WALL (       1 calls)
     hinit0       :      0.64s CPU      0.90s WALL (       1 calls)

     Called by electrons:
     c_bands      :      0.71s CPU      0.77s WALL (      18 calls)
     sum_band     :      4.90s CPU      4.97s WALL (      18 calls)
     v_of_rho     :      3.18s CPU      3.02s WALL (      18 calls)
     newd         :      4.60s CPU      4.68s WALL (      18 calls)
                                        4.68s GPU  (      18 calls)
     PAW_pot      :      0.88s CPU      0.75s WALL (      18 calls)
     mix_rho      :     10.05s CPU      7.24s WALL (      18 calls)
     energy_dftd3 :      0.00s CPU      0.00s WALL (       1 calls)

     Called by c_bands:
     init_us_2    :      0.01s CPU      0.01s WALL (      37 calls)
     regterg      :      0.64s CPU      0.69s WALL (      18 calls)

     Called by *egterg:
     rdiaghg      :      0.03s CPU      0.10s WALL (     123 calls)
                                        0.10s GPU  (     123 calls)
     h_psi        :      0.42s CPU      0.68s WALL (     125 calls)
                                        0.68s GPU  (     125 calls)
     s_psi        :      0.01s CPU      0.01s WALL (     125 calls)
     g_psi        :      0.00s CPU      0.00s WALL (     106 calls)
                                        0.00s GPU  (     106 calls)

     Called by h_psi:
     h_psi:calbec :      0.09s CPU      0.09s WALL (     125 calls)
                                        0.09s GPU  (     125 calls)
     vloc_psi     :      0.24s CPU      0.48s WALL (     125 calls)
                                        0.48s GPU  (     125 calls)
     add_vuspsi   :      0.01s CPU      0.01s WALL (     125 calls)
                                        0.01s GPU  (     125 calls)

     General routines
     calbec       :      0.09s CPU      0.10s WALL (     147 calls)
     fft          :      8.73s CPU      4.84s WALL (     338 calls)
                                        0.72s GPU  (     302 calls)
     ffts         :      5.07s CPU      3.52s WALL (    2022 calls)
                                        1.52s GPU  (    1986 calls)
     fftw         :      0.13s CPU      0.44s WALL (     304 calls)
                                        0.44s GPU  (     304 calls)
     interpolate  :     12.77s CPU      7.42s WALL (      36 calls)
 
     Parallel routines
 
     PWSCF        :     43.35s CPU     36.09s WALL

 
   This run was terminated on:  17:13: 1  12Nov2025            

=------------------------------------------------------------------------------=
   JOB DONE.
=------------------------------------------------------------------------------=
