
     Program PWSCF v.7.3.1 starts on 12Nov2025 at 17:14: 3 

     This program is part of the open-source Quantum ESPRESSO suite
     for quantum simulation of materials; please cite
         "P. Giannozzi et al., J. Phys.:Condens. Matter 21 395502 (2009);
         "P. Giannozzi et al., J. Phys.:Condens. Matter 29 465901 (2017);
         "P. Giannozzi et al., J. Chem. Phys. 152 154105 (2020);
          URL http://www.quantum-espresso.org", 
     in publications or presentations arising from this work. More details at
     http://www.quantum-espresso.org/quote

     Parallel version (MPI & OpenMP), running on      32 processor cores
     Number of MPI processes:                 4
     Threads/MPI process:                     8

     MPI processes distributed on     1 nodes
     504189 MiB available memory on the printing compute node when the environment starts
 
     Waiting for input...
     Reading input from standard input

     Current dimensions of program PWSCF are:
     Max number of different atomic species (ntypx) = 10
     Max number of k-points (npk) =  40000
     Max angular momentum in pseudopotentials (lmaxx) =  4
     file O.pbe-n-kjpaw_psl.1.0.0.UPF: wavefunction(s)  2S 2P renormalized
     file H.pbe-kjpaw_psl.1.0.0.UPF: wavefunction(s)  1S renormalized

     gamma-point specific algorithms are used
 
     K-points division:     npool     =       2
     R & G space division:  proc/nbgrp/npool/nimage =       2
     Subspace diagonalization in iterative solution of the eigenvalue problem:
     a serial algorithm will be used

 
     Parallelization info
     --------------------
     sticks:   dense  smooth     PW     G-vecs:    dense   smooth      PW
     Min       23082   11538   2885              3794045  1341403  167663
     Max       23083   11541   2886              3794046  1341406  167666
     Sum       46165   23079   5771              7588091  2682809  335329
 
     Using Slab Decomposition
 


     bravais-lattice index     =            0
     lattice parameter (alat)  =      37.7945  a.u.
     unit-cell volume          =   56166.3880 (a.u.)^3
     number of atoms/cell      =            1
     number of atomic types    =            4
     number of electrons       =         6.00
     number of Kohn-Sham states=            7
     kinetic-energy cutoff     =      50.0000  Ry
     charge density cutoff     =     400.0000  Ry
     scf convergence threshold =      1.0E-06
     mixing beta               =       0.2000
     number of iterations used =            8  local-TF  mixing
     Exchange-correlation= SLA  PW   PBX  PBC
                           (   1   4   3   4   0   0   0)

     GPU acceleration is ACTIVE.  4 visible GPUs per MPI rank
     GPU-aware MPI enabled


     celldm(1)=  37.794522  celldm(2)=   0.000000  celldm(3)=   0.000000
     celldm(4)=   0.000000  celldm(5)=   0.000000  celldm(6)=   0.000000

     crystal axes: (cart. coord. in units of alat)
               a(1) = (   1.000000   0.000000   0.000000 )  
               a(2) = (   0.000000   1.015000   0.000000 )  
               a(3) = (   0.000000   0.000000   1.025000 )  

     reciprocal axes: (cart. coord. in units 2 pi/alat)
               b(1) = (  1.000000  0.000000  0.000000 )  
               b(2) = (  0.000000  0.985222  0.000000 )  
               b(3) = (  0.000000  0.000000  0.975610 )  


     PseudoPot. # 1 for Mo read from file:
     /leonardo/home/userexternal/apacini0/PSEUDO/Mo.pbe-spn-rrkjus_psl.0.2.UPF
     MD5 check sum: fc6921ed78563293cf4f0ffad66b730e
     Pseudo is Ultrasoft + core correction, Zval = 14.0
     Generated using "atomic" code by A. Dal Corso  v.5.0.2 svn rev. 9415
     Using radial grid of 1229 points,  6 beta functions with: 
                l(1) =   0
                l(2) =   0
                l(3) =   1
                l(4) =   1
                l(5) =   2
                l(6) =   2
     Q(r) pseudized with 0 coefficients 


     PseudoPot. # 2 for S  read from file:
     /leonardo/home/userexternal/apacini0/PSEUDO/S.pbe-n-rrkjus_psl.0.1.UPF
     MD5 check sum: bcce8fa2324dad47c8296339772e3939
     Pseudo is Ultrasoft + core correction, Zval =  6.0
     Generated using "atomic" code by A. Dal Corso  v.5.0.2 svn rev. 9415
     Using radial grid of 1151 points,  4 beta functions with: 
                l(1) =   0
                l(2) =   0
                l(3) =   1
                l(4) =   1
     Q(r) pseudized with 0 coefficients 


     PseudoPot. # 3 for O  read from file:
     /leonardo/home/userexternal/apacini0/PSEUDO/O.pbe-n-kjpaw_psl.1.0.0.UPF
     MD5 check sum: e99d9cef9b487d1ca56f5b95ecd0fd7a
     Pseudo is Projector augmented-wave + core cor, Zval =  6.0
     Generated using &quot;atomic&quot; code by A. Dal Corso  v.6.3
     Shape of augmentation charge: PSQ
     Using radial grid of 1095 points,  4 beta functions with: 
                l(1) =   0
                l(2) =   0
                l(3) =   1
                l(4) =   1
     Q(r) pseudized with 0 coefficients 


     PseudoPot. # 4 for H  read from file:
     /leonardo/home/userexternal/apacini0/PSEUDO/H.pbe-kjpaw_psl.1.0.0.UPF
     MD5 check sum: d81a744832360e4a8af0b0b5b123bc2a
     Pseudo is Projector augmented-wave, Zval =  1.0
     Generated using &quot;atomic&quot; code by A. Dal Corso  v.6.3MaX
     Shape of augmentation charge: PSQ
     Using radial grid of  929 points,  2 beta functions with: 
                l(1) =   0
                l(2) =   0
     Q(r) pseudized with 0 coefficients 


     atomic species   valence    mass     pseudopotential
     Mo               14.00    95.95000     Mo( 1.00)
     S                 6.00    32.06500     S ( 1.00)
     O                 6.00    15.99900     O ( 1.00)
     H                 1.00     1.00800     H ( 1.00)

     Starting magnetic structure 
     atomic species   magnetization
     Mo              0.200
     S               0.200
     O               0.200
     H               0.200

     No symmetry found



   Cartesian axes

     site n.     atom                  positions (alat units)
         1        O      tau(   1) = (   0.0000000   0.0000000   0.0000000  )

     --------------------------------------------
     DFT-D3 Dispersion Correction (3-body terms):
     --------------------------------------------
       Reference C6 values for interpolation: 

         atom   Coordination number   C6
         H          0.912             6.05
         H          0.000            15.18
         O          0.000            31.01
         O          0.993            25.63
         O          1.989            20.74
         S          0.000           268.01
         S          0.995           261.99
         S          1.990           251.62
         Mo         0.000          1691.79
         Mo         1.942          1004.01
         Mo        11.056           674.22

       Values used:

         atom   Coordination number  R0_AB[au]  C6      C8
         O          0.000            2.345     30.90    623.64

         Molecular C6 ( Ry / a.u.^6 ) =        30.90


     number of k points=     1  Gaussian smearing, width (Ry)=  0.0073
                       cart. coord. in units 2pi/alat
        k(    1) = (   0.0000000   0.0000000   0.0000000), wk =   1.0000000

     Dense  grid:  3794046 G-vectors     FFT dimensions: ( 243, 250, 250)

     Smooth grid:  1341405 G-vectors     FFT dimensions: ( 180, 180, 180)

     Estimated max dynamical RAM per process >       5.00 GB

     Estimated total dynamical RAM >      18.19 GB
     Generating pointlists ...
     new r_m :   0.4125 (alat units) 15.5902 (a.u.) for type    1
     new r_m :   0.4125 (alat units) 15.5902 (a.u.) for type    2
     new r_m :   0.4125 (alat units) 15.5902 (a.u.) for type    3
     new r_m :   0.4125 (alat units) 15.5902 (a.u.) for type    4

     Initial potential from superposition of free atoms

     starting charge       6.0000, renormalised to       6.0000

     negative rho (up, down):  1.223E-03 8.151E-04
     Starting wfcs are    4 randomized atomic wfcs +    3 random wfcs
     Checking if some PAW data can be deallocated... 

     total cpu time spent up to now is        5.0 secs

     per-process dynamical memory:  1363.3 Mb

     Self-consistent Calculation

     iteration #  1     ecut=    50.00 Ry     beta= 0.20
     Davidson diagonalization with overlap
     ethr =  1.00E-02,  avg # of iterations =  4.0

     Threshold (ethr) on eigenvalues was too large:
     Diagonalizing with lowered threshold

     Davidson diagonalization with overlap
     ethr =  2.27E-04,  avg # of iterations =  6.0

     negative rho (up, down):  1.181E-03 6.481E-04

     total cpu time spent up to now is        7.5 secs

     total energy              =     -41.25901192 Ry
     estimated scf accuracy    <       0.01628857 Ry

     total magnetization       =     2.00 Bohr mag/cell
     absolute magnetization    =     2.00 Bohr mag/cell

     iteration #  2     ecut=    50.00 Ry     beta= 0.20
     Davidson diagonalization with overlap
     ethr =  2.71E-04,  avg # of iterations =  2.0

     negative rho (up, down):  1.516E-03 1.679E-03

     total cpu time spent up to now is        9.2 secs

     total energy              =     -41.27156701 Ry
     estimated scf accuracy    <       0.01115367 Ry

     total magnetization       =     2.00 Bohr mag/cell
     absolute magnetization    =     2.00 Bohr mag/cell

     iteration #  3     ecut=    50.00 Ry     beta= 0.20
     Davidson diagonalization with overlap
     ethr =  1.86E-04,  avg # of iterations =  1.5

     negative rho (up, down):  1.373E-03 1.579E-03

     total cpu time spent up to now is       10.8 secs

     total energy              =     -41.27131617 Ry
     estimated scf accuracy    <       0.00998873 Ry

     total magnetization       =     2.00 Bohr mag/cell
     absolute magnetization    =     2.00 Bohr mag/cell

     iteration #  4     ecut=    50.00 Ry     beta= 0.20
     Davidson diagonalization with overlap
     ethr =  1.66E-04,  avg # of iterations =  5.0

     negative rho (up, down):  1.226E-03 1.267E-03

     total cpu time spent up to now is       12.6 secs

     total energy              =     -41.27226299 Ry
     estimated scf accuracy    <       0.00057408 Ry

     total magnetization       =     2.00 Bohr mag/cell
     absolute magnetization    =     2.00 Bohr mag/cell

     iteration #  5     ecut=    50.00 Ry     beta= 0.20
     Davidson diagonalization with overlap
     c_bands:  3 eigenvalues not converged
     ethr =  9.57E-06,  avg # of iterations = 20.0

     negative rho (up, down):  1.134E-03 1.221E-03

     total cpu time spent up to now is       14.4 secs

     total energy              =     -41.27208781 Ry
     estimated scf accuracy    <       0.00050455 Ry

     total magnetization       =     2.00 Bohr mag/cell
     absolute magnetization    =     2.00 Bohr mag/cell

     iteration #  6     ecut=    50.00 Ry     beta= 0.20
     Davidson diagonalization with overlap
     ethr =  8.41E-06,  avg # of iterations =  8.5

     negative rho (up, down):  1.059E-03 7.086E-04

     total cpu time spent up to now is       16.2 secs

     total energy              =     -41.27217221 Ry
     estimated scf accuracy    <       0.00038951 Ry

     total magnetization       =     2.00 Bohr mag/cell
     absolute magnetization    =     2.00 Bohr mag/cell

     iteration #  7     ecut=    50.00 Ry     beta= 0.20
     Davidson diagonalization with overlap
     ethr =  6.49E-06,  avg # of iterations =  3.5

     negative rho (up, down):  1.017E-03 5.802E-04

     total cpu time spent up to now is       18.0 secs

     total energy              =     -41.27229453 Ry
     estimated scf accuracy    <       0.00021933 Ry

     total magnetization       =     2.00 Bohr mag/cell
     absolute magnetization    =     2.00 Bohr mag/cell

     iteration #  8     ecut=    50.00 Ry     beta= 0.20
     Davidson diagonalization with overlap
     ethr =  3.66E-06,  avg # of iterations =  4.5

     negative rho (up, down):  9.489E-04 3.999E-04

     total cpu time spent up to now is       19.8 secs

     total energy              =     -41.27233004 Ry
     estimated scf accuracy    <       0.00020220 Ry

     total magnetization       =     2.00 Bohr mag/cell
     absolute magnetization    =     2.00 Bohr mag/cell

     iteration #  9     ecut=    50.00 Ry     beta= 0.20
     Davidson diagonalization with overlap
     ethr =  3.37E-06,  avg # of iterations =  2.5

     negative rho (up, down):  7.997E-04 2.021E-04

     total cpu time spent up to now is       21.6 secs

     total energy              =     -41.27233777 Ry
     estimated scf accuracy    <       0.00021551 Ry

     total magnetization       =     2.00 Bohr mag/cell
     absolute magnetization    =     2.00 Bohr mag/cell

     iteration # 10     ecut=    50.00 Ry     beta= 0.20
     Davidson diagonalization with overlap
     ethr =  3.37E-06,  avg # of iterations =  1.5

     negative rho (up, down):  7.878E-04 1.531E-04

     total cpu time spent up to now is       23.4 secs

     total energy              =     -41.27235875 Ry
     estimated scf accuracy    <       0.00002139 Ry

     total magnetization       =     2.00 Bohr mag/cell
     absolute magnetization    =     2.00 Bohr mag/cell

     iteration # 11     ecut=    50.00 Ry     beta= 0.20
     Davidson diagonalization with overlap
     ethr =  3.56E-07,  avg # of iterations =  9.0

     negative rho (up, down):  7.753E-04 1.335E-04

     total cpu time spent up to now is       25.3 secs

     total energy              =     -41.27236027 Ry
     estimated scf accuracy    <       0.00005191 Ry

     total magnetization       =     2.00 Bohr mag/cell
     absolute magnetization    =     2.00 Bohr mag/cell

     iteration # 12     ecut=    50.00 Ry     beta= 0.20
     Davidson diagonalization with overlap
     ethr =  3.56E-07,  avg # of iterations =  2.0

     negative rho (up, down):  7.679E-04 1.291E-04

     total cpu time spent up to now is       27.2 secs

     total energy              =     -41.27235315 Ry
     estimated scf accuracy    <       0.00003927 Ry

     total magnetization       =     2.00 Bohr mag/cell
     absolute magnetization    =     2.00 Bohr mag/cell

     iteration # 13     ecut=    50.00 Ry     beta= 0.20
     Davidson diagonalization with overlap
     ethr =  3.56E-07,  avg # of iterations =  5.0

     negative rho (up, down):  1.181E-03 2.905E-04

     total cpu time spent up to now is       29.0 secs

     total energy              =     -41.27237025 Ry
     estimated scf accuracy    <       0.00001230 Ry

     total magnetization       =     2.00 Bohr mag/cell
     absolute magnetization    =     2.00 Bohr mag/cell

     iteration # 14     ecut=    50.00 Ry     beta= 0.20
     Davidson diagonalization with overlap
     ethr =  2.05E-07,  avg # of iterations = 12.0

     negative rho (up, down):  1.612E-03 7.035E-04

     total cpu time spent up to now is       30.9 secs

     total energy              =     -41.27237698 Ry
     estimated scf accuracy    <       0.00000922 Ry

     total magnetization       =     2.00 Bohr mag/cell
     absolute magnetization    =     2.00 Bohr mag/cell

     iteration # 15     ecut=    50.00 Ry     beta= 0.20
     Davidson diagonalization with overlap
     ethr =  1.54E-07,  avg # of iterations =  4.5

     negative rho (up, down):  1.404E-03 4.572E-04

     total cpu time spent up to now is       32.8 secs

     total energy              =     -41.27237552 Ry
     estimated scf accuracy    <       0.00000380 Ry

     total magnetization       =     2.00 Bohr mag/cell
     absolute magnetization    =     2.00 Bohr mag/cell

     iteration # 16     ecut=    50.00 Ry     beta= 0.20
     Davidson diagonalization with overlap
     ethr =  6.34E-08,  avg # of iterations =  1.5

     negative rho (up, down):  1.632E-03 6.979E-04

     total cpu time spent up to now is       34.6 secs

     total energy              =     -41.27237794 Ry
     estimated scf accuracy    <       0.00000451 Ry

     total magnetization       =     2.00 Bohr mag/cell
     absolute magnetization    =     2.00 Bohr mag/cell

     iteration # 17     ecut=    50.00 Ry     beta= 0.20
     Davidson diagonalization with overlap
     ethr =  6.34E-08,  avg # of iterations =  2.0

     negative rho (up, down):  1.582E-03 6.268E-04

     total cpu time spent up to now is       36.4 secs

     total energy              =     -41.27237785 Ry
     estimated scf accuracy    <       0.00000366 Ry

     total magnetization       =     2.00 Bohr mag/cell
     absolute magnetization    =     2.00 Bohr mag/cell

     iteration # 18     ecut=    50.00 Ry     beta= 0.20
     Davidson diagonalization with overlap
     ethr =  6.10E-08,  avg # of iterations =  1.0

     negative rho (up, down):  1.620E-03 6.367E-04

     total cpu time spent up to now is       38.3 secs

     total energy              =     -41.27237964 Ry
     estimated scf accuracy    <       0.00000359 Ry

     total magnetization       =     2.00 Bohr mag/cell
     absolute magnetization    =     2.00 Bohr mag/cell

     iteration # 19     ecut=    50.00 Ry     beta= 0.20
     Davidson diagonalization with overlap
     ethr =  5.98E-08,  avg # of iterations =  1.0

     negative rho (up, down):  1.623E-03 6.159E-04

     total cpu time spent up to now is       40.1 secs

     total energy              =     -41.27237992 Ry
     estimated scf accuracy    <       0.00000325 Ry

     total magnetization       =     2.00 Bohr mag/cell
     absolute magnetization    =     2.00 Bohr mag/cell

     iteration # 20     ecut=    50.00 Ry     beta= 0.20
     Davidson diagonalization with overlap
     ethr =  5.42E-08,  avg # of iterations =  1.0

     negative rho (up, down):  1.644E-03 6.321E-04

     total cpu time spent up to now is       41.9 secs

     total energy              =     -41.27238037 Ry
     estimated scf accuracy    <       0.00000288 Ry

     total magnetization       =     2.00 Bohr mag/cell
     absolute magnetization    =     2.00 Bohr mag/cell

     iteration # 21     ecut=    50.00 Ry     beta= 0.20
     Davidson diagonalization with overlap
     ethr =  4.81E-08,  avg # of iterations =  1.0

     negative rho (up, down):  1.572E-03 5.480E-04

     total cpu time spent up to now is       43.7 secs

     total energy              =     -41.27237950 Ry
     estimated scf accuracy    <       0.00000308 Ry

     total magnetization       =     2.00 Bohr mag/cell
     absolute magnetization    =     2.00 Bohr mag/cell

     iteration # 22     ecut=    50.00 Ry     beta= 0.20
     Davidson diagonalization with overlap
     ethr =  4.81E-08,  avg # of iterations =  1.0

     negative rho (up, down):  1.705E-03 6.987E-04

     total cpu time spent up to now is       45.5 secs

     total energy              =     -41.27238132 Ry
     estimated scf accuracy    <       0.00000344 Ry

     total magnetization       =     2.00 Bohr mag/cell
     absolute magnetization    =     2.00 Bohr mag/cell

     iteration # 23     ecut=    50.00 Ry     beta= 0.20
     Davidson diagonalization with overlap
     ethr =  4.81E-08,  avg # of iterations =  1.0

     negative rho (up, down):  1.606E-03 5.770E-04

     total cpu time spent up to now is       47.4 secs

     total energy              =     -41.27237980 Ry
     estimated scf accuracy    <       0.00000387 Ry

     total magnetization       =     2.00 Bohr mag/cell
     absolute magnetization    =     2.00 Bohr mag/cell

     iteration # 24     ecut=    50.00 Ry     beta= 0.20
     Davidson diagonalization with overlap
     ethr =  4.81E-08,  avg # of iterations =  1.0

     negative rho (up, down):  1.548E-03 5.188E-04

     total cpu time spent up to now is       49.2 secs

     total energy              =     -41.27237913 Ry
     estimated scf accuracy    <       0.00000287 Ry

     total magnetization       =     2.00 Bohr mag/cell
     absolute magnetization    =     2.00 Bohr mag/cell

     iteration # 25     ecut=    50.00 Ry     beta= 0.20
     Davidson diagonalization with overlap
     ethr =  4.79E-08,  avg # of iterations =  1.0

     negative rho (up, down):  1.630E-03 5.845E-04

     total cpu time spent up to now is       51.0 secs

     total energy              =     -41.27238029 Ry
     estimated scf accuracy    <       0.00000298 Ry

     total magnetization       =     2.00 Bohr mag/cell
     absolute magnetization    =     2.00 Bohr mag/cell

     iteration # 26     ecut=    50.00 Ry     beta= 0.20
     Davidson diagonalization with overlap
     ethr =  4.79E-08,  avg # of iterations =  1.0

     negative rho (up, down):  1.565E-03 5.071E-04

     total cpu time spent up to now is       52.8 secs

     total energy              =     -41.27238001 Ry
     estimated scf accuracy    <       0.00000236 Ry

     total magnetization       =     2.00 Bohr mag/cell
     absolute magnetization    =     2.00 Bohr mag/cell

     iteration # 27     ecut=    50.00 Ry     beta= 0.20
     Davidson diagonalization with overlap
     ethr =  3.94E-08,  avg # of iterations =  1.0

     negative rho (up, down):  1.656E-03 6.005E-04

     total cpu time spent up to now is       54.7 secs

     total energy              =     -41.27238036 Ry
     estimated scf accuracy    <       0.00000248 Ry

     total magnetization       =     2.00 Bohr mag/cell
     absolute magnetization    =     2.00 Bohr mag/cell

     iteration # 28     ecut=    50.00 Ry     beta= 0.20
     Davidson diagonalization with overlap
     ethr =  3.94E-08,  avg # of iterations =  1.0

     negative rho (up, down):  1.665E-03 5.994E-04

     total cpu time spent up to now is       56.5 secs

     total energy              =     -41.27238100 Ry
     estimated scf accuracy    <       0.00000213 Ry

     total magnetization       =     2.00 Bohr mag/cell
     absolute magnetization    =     2.00 Bohr mag/cell

     iteration # 29     ecut=    50.00 Ry     beta= 0.20
     Davidson diagonalization with overlap
     ethr =  3.56E-08,  avg # of iterations =  1.0

     negative rho (up, down):  1.667E-03 5.951E-04

     total cpu time spent up to now is       58.3 secs

     total energy              =     -41.27238131 Ry
     estimated scf accuracy    <       0.00000209 Ry

     total magnetization       =     2.00 Bohr mag/cell
     absolute magnetization    =     2.00 Bohr mag/cell

     iteration # 30     ecut=    50.00 Ry     beta= 0.20
     Davidson diagonalization with overlap
     ethr =  3.48E-08,  avg # of iterations =  1.0

     negative rho (up, down):  1.698E-03 5.993E-04

     total cpu time spent up to now is       60.1 secs

     total energy              =     -41.27238431 Ry
     estimated scf accuracy    <       0.00000207 Ry

     total magnetization       =     2.00 Bohr mag/cell
     absolute magnetization    =     2.00 Bohr mag/cell

     iteration # 31     ecut=    50.00 Ry     beta= 0.20
     Davidson diagonalization with overlap
     ethr =  3.44E-08,  avg # of iterations =  1.0

     negative rho (up, down):  1.678E-03 5.740E-04

     total cpu time spent up to now is       62.0 secs

     total energy              =     -41.27238498 Ry
     estimated scf accuracy    <       0.00000170 Ry

     total magnetization       =     2.00 Bohr mag/cell
     absolute magnetization    =     2.00 Bohr mag/cell

     iteration # 32     ecut=    50.00 Ry     beta= 0.20
     Davidson diagonalization with overlap
     ethr =  2.83E-08,  avg # of iterations =  1.0

     negative rho (up, down):  1.691E-03 5.751E-04

     total cpu time spent up to now is       63.8 secs

     total energy              =     -41.27238630 Ry
     estimated scf accuracy    <       0.00000135 Ry

     total magnetization       =     2.00 Bohr mag/cell
     absolute magnetization    =     2.00 Bohr mag/cell

     iteration # 33     ecut=    50.00 Ry     beta= 0.20
     Davidson diagonalization with overlap
     ethr =  2.25E-08,  avg # of iterations =  1.5

     negative rho (up, down):  1.651E-03 5.416E-04

     total cpu time spent up to now is       65.6 secs

     total energy              =     -41.27238597 Ry
     estimated scf accuracy    <       0.00000157 Ry

     total magnetization       =     2.00 Bohr mag/cell
     absolute magnetization    =     2.00 Bohr mag/cell

     iteration # 34     ecut=    50.00 Ry     beta= 0.20
     Davidson diagonalization with overlap
     ethr =  2.25E-08,  avg # of iterations =  1.0

     negative rho (up, down):  1.715E-03 5.996E-04

     total cpu time spent up to now is       67.4 secs

     total energy              =     -41.27238620 Ry
     estimated scf accuracy    <       0.00000157 Ry

     total magnetization       =     2.00 Bohr mag/cell
     absolute magnetization    =     2.00 Bohr mag/cell

     iteration # 35     ecut=    50.00 Ry     beta= 0.20
     Davidson diagonalization with overlap
     ethr =  2.25E-08,  avg # of iterations =  1.0

     negative rho (up, down):  1.697E-03 5.823E-04

     total cpu time spent up to now is       69.3 secs

     total energy              =     -41.27238601 Ry
     estimated scf accuracy    <       0.00000143 Ry

     total magnetization       =     2.00 Bohr mag/cell
     absolute magnetization    =     2.00 Bohr mag/cell

     iteration # 36     ecut=    50.00 Ry     beta= 0.20
     Davidson diagonalization with overlap
     ethr =  2.25E-08,  avg # of iterations =  1.0

     negative rho (up, down):  1.709E-03 6.226E-04

     total cpu time spent up to now is       71.1 secs

     total energy              =     -41.27238549 Ry
     estimated scf accuracy    <       0.00000146 Ry

     total magnetization       =     2.00 Bohr mag/cell
     absolute magnetization    =     2.00 Bohr mag/cell

     iteration # 37     ecut=    50.00 Ry     beta= 0.20
     Davidson diagonalization with overlap
     ethr =  2.25E-08,  avg # of iterations =  5.5

     negative rho (up, down):  1.789E-03 6.807E-04

     total cpu time spent up to now is       72.9 secs

     total energy              =     -41.27238650 Ry
     estimated scf accuracy    <       0.00000165 Ry

     total magnetization       =     2.00 Bohr mag/cell
     absolute magnetization    =     2.00 Bohr mag/cell

     iteration # 38     ecut=    50.00 Ry     beta= 0.20
     Davidson diagonalization with overlap
     ethr =  2.25E-08,  avg # of iterations =  1.0

     negative rho (up, down):  1.787E-03 6.818E-04

     total cpu time spent up to now is       74.8 secs

     total energy              =     -41.27238618 Ry
     estimated scf accuracy    <       0.00000245 Ry

     total magnetization       =     2.00 Bohr mag/cell
     absolute magnetization    =     2.00 Bohr mag/cell

     iteration # 39     ecut=    50.00 Ry     beta= 0.20
     Davidson diagonalization with overlap
     ethr =  2.25E-08,  avg # of iterations =  1.0

     negative rho (up, down):  1.707E-03 5.939E-04

     total cpu time spent up to now is       76.6 secs

     total energy              =     -41.27238653 Ry
     estimated scf accuracy    <       0.00000141 Ry

     total magnetization       =     2.00 Bohr mag/cell
     absolute magnetization    =     2.00 Bohr mag/cell

     iteration # 40     ecut=    50.00 Ry     beta= 0.20
     Davidson diagonalization with overlap
     ethr =  2.25E-08,  avg # of iterations =  1.0

     negative rho (up, down):  1.861E-03 7.443E-04

     total cpu time spent up to now is       78.4 secs

     total energy              =     -41.27238677 Ry
     estimated scf accuracy    <       0.00000161 Ry

     total magnetization       =     2.00 Bohr mag/cell
     absolute magnetization    =     2.00 Bohr mag/cell

     iteration # 41     ecut=    50.00 Ry     beta= 0.20
     Davidson diagonalization with overlap
     ethr =  2.25E-08,  avg # of iterations =  1.0

     negative rho (up, down):  1.726E-03 6.164E-04

     total cpu time spent up to now is       80.2 secs

     total energy              =     -41.27238601 Ry
     estimated scf accuracy    <       0.00000256 Ry

     total magnetization       =     2.00 Bohr mag/cell
     absolute magnetization    =     2.00 Bohr mag/cell

     iteration # 42     ecut=    50.00 Ry     beta= 0.20
     Davidson diagonalization with overlap
     ethr =  2.25E-08,  avg # of iterations =  1.5

     negative rho (up, down):  1.741E-03 6.431E-04

     total cpu time spent up to now is       82.1 secs

     total energy              =     -41.27238589 Ry
     estimated scf accuracy    <       0.00000149 Ry

     total magnetization       =     2.00 Bohr mag/cell
     absolute magnetization    =     2.00 Bohr mag/cell

     iteration # 43     ecut=    50.00 Ry     beta= 0.20
     Davidson diagonalization with overlap
     ethr =  2.25E-08,  avg # of iterations =  1.0

     negative rho (up, down):  1.754E-03 6.519E-04

     total cpu time spent up to now is       83.9 secs

     total energy              =     -41.27238605 Ry
     estimated scf accuracy    <       0.00000140 Ry

     total magnetization       =     2.00 Bohr mag/cell
     absolute magnetization    =     2.00 Bohr mag/cell

     iteration # 44     ecut=    50.00 Ry     beta= 0.20
     Davidson diagonalization with overlap
     ethr =  2.25E-08,  avg # of iterations =  1.0

     negative rho (up, down):  1.772E-03 6.637E-04

     total cpu time spent up to now is       85.7 secs

     total energy              =     -41.27238630 Ry
     estimated scf accuracy    <       0.00000135 Ry

     total magnetization       =     2.00 Bohr mag/cell
     absolute magnetization    =     2.00 Bohr mag/cell

     iteration # 45     ecut=    50.00 Ry     beta= 0.20
     Davidson diagonalization with overlap
     ethr =  2.24E-08,  avg # of iterations =  1.0

     negative rho (up, down):  1.785E-03 6.886E-04

     total cpu time spent up to now is       87.5 secs

     total energy              =     -41.27238573 Ry
     estimated scf accuracy    <       0.00000147 Ry

     total magnetization       =     2.00 Bohr mag/cell
     absolute magnetization    =     2.00 Bohr mag/cell

     iteration # 46     ecut=    50.00 Ry     beta= 0.20
     Davidson diagonalization with overlap
     ethr =  2.24E-08,  avg # of iterations =  1.0

     negative rho (up, down):  1.788E-03 7.032E-04

     total cpu time spent up to now is       89.4 secs

     total energy              =     -41.27238513 Ry
     estimated scf accuracy    <       0.00000155 Ry

     total magnetization       =     2.00 Bohr mag/cell
     absolute magnetization    =     2.00 Bohr mag/cell

     iteration # 47     ecut=    50.00 Ry     beta= 0.20
     Davidson diagonalization with overlap
     ethr =  2.24E-08,  avg # of iterations =  1.0

     negative rho (up, down):  1.771E-03 6.693E-04

     total cpu time spent up to now is       91.2 secs

     total energy              =     -41.27238607 Ry
     estimated scf accuracy    <       0.00000171 Ry

     total magnetization       =     2.00 Bohr mag/cell
     absolute magnetization    =     2.00 Bohr mag/cell

     iteration # 48     ecut=    50.00 Ry     beta= 0.20
     Davidson diagonalization with overlap
     ethr =  2.24E-08,  avg # of iterations =  1.0

     negative rho (up, down):  1.788E-03 6.762E-04

     total cpu time spent up to now is       93.0 secs

     total energy              =     -41.27238616 Ry
     estimated scf accuracy    <       0.00000173 Ry

     total magnetization       =     2.00 Bohr mag/cell
     absolute magnetization    =     2.00 Bohr mag/cell

     iteration # 49     ecut=    50.00 Ry     beta= 0.20
     Davidson diagonalization with overlap
     ethr =  2.24E-08,  avg # of iterations =  1.0

     negative rho (up, down):  1.812E-03 6.855E-04

     total cpu time spent up to now is       94.9 secs

     total energy              =     -41.27238682 Ry
     estimated scf accuracy    <       0.00000146 Ry

     total magnetization       =     2.00 Bohr mag/cell
     absolute magnetization    =     2.00 Bohr mag/cell

     iteration # 50     ecut=    50.00 Ry     beta= 0.20
     Davidson diagonalization with overlap
     ethr =  2.24E-08,  avg # of iterations =  1.0

     negative rho (up, down):  1.803E-03 7.108E-04

     total cpu time spent up to now is       96.7 secs

     total energy              =     -41.27238508 Ry
     estimated scf accuracy    <       0.00000182 Ry

     total magnetization       =     2.00 Bohr mag/cell
     absolute magnetization    =     2.00 Bohr mag/cell

     iteration # 51     ecut=    50.00 Ry     beta= 0.20
     Davidson diagonalization with overlap
     ethr =  2.24E-08,  avg # of iterations =  1.5

     negative rho (up, down):  1.821E-03 6.826E-04
 
     Magnetic moment per site  (integrated on atomic sphere of radius R)
     atom   1 (R=0.413)  charge=  6.0000  magn=  2.0000

     total cpu time spent up to now is       98.1 secs

     End of self-consistent calculation

 ------ SPIN UP ------------


          k = 0.0000 0.0000 0.0000 (167665 PWs)   bands (ev):

   -25.2036 -10.2080 -10.2065 -10.2023  -0.3222  -0.0010   0.2187

 ------ SPIN DOWN ----------


          k = 0.0000 0.0000 0.0000 (167665 PWs)   bands (ev):

   -21.9564  -7.1729  -7.1719  -7.1719  -0.2476   0.0253   0.2048

     the Fermi energy is    -7.2027 ev

!    total energy              =     -41.27238839 Ry
     total all-electron energy =      -150.119279 Ry
     estimated scf accuracy    <       0.00000081 Ry
     smearing contrib. (-TS)   =      -0.00566902 Ry
     internal energy E=F+TS    =     -41.26671936 Ry

     The total energy is F=E-TS. E is the sum of the following terms:
     one-electron contribution =     -46.69460448 Ry
     hartree contribution      =      24.75175702 Ry
     xc contribution           =      -7.05412549 Ry
     ewald contribution        =      -2.66673830 Ry
     DFT-D3 Dispersion         =      -0.00000004 Ry
     one-center paw contrib.   =      -9.60300807 Ry

     total magnetization       =     2.00 Bohr mag/cell
     absolute magnetization    =     2.00 Bohr mag/cell

     convergence has been achieved in  51 iterations

     negative rho (up, down):  1.821E-03 6.826E-04

     Forces acting on atoms (cartesian axes, Ry/au):

     atom    1 type  3   force =     0.00000000    0.00000000    0.00000000

     Total force =     0.000000     Total SCF correction =     0.000304
     Message from routine punch:
     Nothing written, as per user request (disk_io='none')
 
     init_run     :      3.85s CPU      4.53s WALL (       1 calls)
     electrons    :    121.95s CPU     93.03s WALL (       1 calls)
     forces       :      0.42s CPU      0.35s WALL (       1 calls)
     force_dftd3  :      0.07s CPU      0.07s WALL (       1 calls)

     Called by init_run:
     wfcinit      :      0.02s CPU      0.28s WALL (       1 calls)
     potinit      :      2.11s CPU      2.13s WALL (       1 calls)
     hinit0       :      0.64s CPU      0.89s WALL (       1 calls)

     Called by electrons:
     c_bands      :      1.44s CPU      1.50s WALL (      52 calls)
     sum_band     :     14.22s CPU     14.34s WALL (      52 calls)
     v_of_rho     :      9.19s CPU      8.43s WALL (      52 calls)
     newd         :     14.07s CPU     14.11s WALL (      52 calls)
                                       14.11s GPU  (      52 calls)
     PAW_pot      :      6.88s CPU      3.55s WALL (      52 calls)
     mix_rho      :     33.33s CPU     24.35s WALL (      52 calls)
     energy_dftd3 :      0.00s CPU      0.00s WALL (       1 calls)

     Called by c_bands:
     init_us_2    :      0.04s CPU      0.04s WALL (     105 calls)
     regterg      :      1.12s CPU      1.16s WALL (      52 calls)

     Called by *egterg:
     rdiaghg      :      0.05s CPU      0.06s WALL (     188 calls)
                                        0.06s GPU  (     188 calls)
     h_psi        :      0.83s CPU      1.11s WALL (     190 calls)
                                        1.11s GPU  (     190 calls)
     s_psi        :      0.01s CPU      0.01s WALL (     190 calls)
     g_psi        :      0.00s CPU      0.01s WALL (     137 calls)
                                        0.00s GPU  (     137 calls)

     Called by h_psi:
     h_psi:calbec :      0.05s CPU      0.05s WALL (     190 calls)
                                        0.05s GPU  (     190 calls)
     vloc_psi     :      0.50s CPU      0.79s WALL (     190 calls)
                                        0.78s GPU  (     190 calls)
     add_vuspsi   :      0.01s CPU      0.01s WALL (     190 calls)
                                        0.01s GPU  (     190 calls)

     General routines
     calbec       :      0.06s CPU      0.06s WALL (     246 calls)
     fft          :     24.59s CPU     12.66s WALL (     950 calls)
                                        1.77s GPU  (     846 calls)
     ffts         :     13.66s CPU      8.84s WALL (    6306 calls)
                                        4.74s GPU  (    6202 calls)
     fftw         :      0.30s CPU      0.74s WALL (     588 calls)
                                        0.74s GPU  (     588 calls)
     interpolate  :     34.88s CPU     18.48s WALL (     104 calls)
 
     Parallel routines
 
     PWSCF        :   2m 6.73s CPU   1m38.51s WALL

 
   This run was terminated on:  17:15:42  12Nov2025            

=------------------------------------------------------------------------------=
   JOB DONE.
=------------------------------------------------------------------------------=
