
     Program PWSCF v.7.3.1 starts on 12Nov2025 at 17:13: 3 

     This program is part of the open-source Quantum ESPRESSO suite
     for quantum simulation of materials; please cite
         "P. Giannozzi et al., J. Phys.:Condens. Matter 21 395502 (2009);
         "P. Giannozzi et al., J. Phys.:Condens. Matter 29 465901 (2017);
         "P. Giannozzi et al., J. Chem. Phys. 152 154105 (2020);
          URL http://www.quantum-espresso.org", 
     in publications or presentations arising from this work. More details at
     http://www.quantum-espresso.org/quote

     Parallel version (MPI & OpenMP), running on      32 processor cores
     Number of MPI processes:                 4
     Threads/MPI process:                     8

     MPI processes distributed on     1 nodes
     504190 MiB available memory on the printing compute node when the environment starts
 
     Waiting for input...
     Reading input from standard input

     Current dimensions of program PWSCF are:
     Max number of different atomic species (ntypx) = 10
     Max number of k-points (npk) =  40000
     Max angular momentum in pseudopotentials (lmaxx) =  4
     file O.pbe-n-kjpaw_psl.1.0.0.UPF: wavefunction(s)  2S 2P renormalized
     file H.pbe-kjpaw_psl.1.0.0.UPF: wavefunction(s)  1S renormalized

     gamma-point specific algorithms are used
 
     K-points division:     npool     =       2
     R & G space division:  proc/nbgrp/npool/nimage =       2
     Subspace diagonalization in iterative solution of the eigenvalue problem:
     a serial algorithm will be used

 
     Parallelization info
     --------------------
     sticks:   dense  smooth     PW     G-vecs:    dense   smooth      PW
     Min       23082   11538   2885              3794045  1341403  167663
     Max       23083   11541   2886              3794046  1341406  167666
     Sum       46165   23079   5771              7588091  2682809  335329
 
     Using Slab Decomposition
 


     bravais-lattice index     =            0
     lattice parameter (alat)  =      37.7945  a.u.
     unit-cell volume          =   56166.3880 (a.u.)^3
     number of atoms/cell      =            1
     number of atomic types    =            4
     number of electrons       =        14.00
     number of Kohn-Sham states=           11
     kinetic-energy cutoff     =      50.0000  Ry
     charge density cutoff     =     400.0000  Ry
     scf convergence threshold =      1.0E-06
     mixing beta               =       0.2000
     number of iterations used =            8  local-TF  mixing
     Exchange-correlation= SLA  PW   PBX  PBC
                           (   1   4   3   4   0   0   0)

     GPU acceleration is ACTIVE.  4 visible GPUs per MPI rank
     GPU-aware MPI enabled


     celldm(1)=  37.794522  celldm(2)=   0.000000  celldm(3)=   0.000000
     celldm(4)=   0.000000  celldm(5)=   0.000000  celldm(6)=   0.000000

     crystal axes: (cart. coord. in units of alat)
               a(1) = (   1.000000   0.000000   0.000000 )  
               a(2) = (   0.000000   1.015000   0.000000 )  
               a(3) = (   0.000000   0.000000   1.025000 )  

     reciprocal axes: (cart. coord. in units 2 pi/alat)
               b(1) = (  1.000000  0.000000  0.000000 )  
               b(2) = (  0.000000  0.985222  0.000000 )  
               b(3) = (  0.000000  0.000000  0.975610 )  


     PseudoPot. # 1 for Mo read from file:
     /leonardo/home/userexternal/apacini0/PSEUDO/Mo.pbe-spn-rrkjus_psl.0.2.UPF
     MD5 check sum: fc6921ed78563293cf4f0ffad66b730e
     Pseudo is Ultrasoft + core correction, Zval = 14.0
     Generated using "atomic" code by A. Dal Corso  v.5.0.2 svn rev. 9415
     Using radial grid of 1229 points,  6 beta functions with: 
                l(1) =   0
                l(2) =   0
                l(3) =   1
                l(4) =   1
                l(5) =   2
                l(6) =   2
     Q(r) pseudized with 0 coefficients 


     PseudoPot. # 2 for S  read from file:
     /leonardo/home/userexternal/apacini0/PSEUDO/S.pbe-n-rrkjus_psl.0.1.UPF
     MD5 check sum: bcce8fa2324dad47c8296339772e3939
     Pseudo is Ultrasoft + core correction, Zval =  6.0
     Generated using "atomic" code by A. Dal Corso  v.5.0.2 svn rev. 9415
     Using radial grid of 1151 points,  4 beta functions with: 
                l(1) =   0
                l(2) =   0
                l(3) =   1
                l(4) =   1
     Q(r) pseudized with 0 coefficients 


     PseudoPot. # 3 for O  read from file:
     /leonardo/home/userexternal/apacini0/PSEUDO/O.pbe-n-kjpaw_psl.1.0.0.UPF
     MD5 check sum: e99d9cef9b487d1ca56f5b95ecd0fd7a
     Pseudo is Projector augmented-wave + core cor, Zval =  6.0
     Generated using &quot;atomic&quot; code by A. Dal Corso  v.6.3
     Shape of augmentation charge: PSQ
     Using radial grid of 1095 points,  4 beta functions with: 
                l(1) =   0
                l(2) =   0
                l(3) =   1
                l(4) =   1
     Q(r) pseudized with 0 coefficients 


     PseudoPot. # 4 for H  read from file:
     /leonardo/home/userexternal/apacini0/PSEUDO/H.pbe-kjpaw_psl.1.0.0.UPF
     MD5 check sum: d81a744832360e4a8af0b0b5b123bc2a
     Pseudo is Projector augmented-wave, Zval =  1.0
     Generated using &quot;atomic&quot; code by A. Dal Corso  v.6.3MaX
     Shape of augmentation charge: PSQ
     Using radial grid of  929 points,  2 beta functions with: 
                l(1) =   0
                l(2) =   0
     Q(r) pseudized with 0 coefficients 


     atomic species   valence    mass     pseudopotential
     Mo               14.00    95.95000     Mo( 1.00)
     S                 6.00    32.06500     S ( 1.00)
     O                 6.00    15.99900     O ( 1.00)
     H                 1.00     1.00800     H ( 1.00)

     Starting magnetic structure 
     atomic species   magnetization
     Mo              0.200
     S               0.200
     O               0.200
     H               0.200

     No symmetry found



   Cartesian axes

     site n.     atom                  positions (alat units)
         1        Mo     tau(   1) = (   0.0000000   0.0000000   0.0000000  )

     --------------------------------------------
     DFT-D3 Dispersion Correction (3-body terms):
     --------------------------------------------
       Reference C6 values for interpolation: 

         atom   Coordination number   C6
         H          0.912             6.05
         H          0.000            15.18
         O          0.000            31.01
         O          0.993            25.63
         O          1.989            20.74
         S          0.000           268.01
         S          0.995           261.99
         S          1.990           251.62
         Mo         0.000          1691.79
         Mo         1.942          1004.01
         Mo        11.056           674.22

       Values used:

         atom   Coordination number  R0_AB[au]  C6      C8
         Mo         0.000            3.547   1691.79 194805.93

         Molecular C6 ( Ry / a.u.^6 ) =      1691.79


     number of k points=     1  Gaussian smearing, width (Ry)=  0.0073
                       cart. coord. in units 2pi/alat
        k(    1) = (   0.0000000   0.0000000   0.0000000), wk =   1.0000000

     Dense  grid:  3794046 G-vectors     FFT dimensions: ( 243, 250, 250)

     Smooth grid:  1341405 G-vectors     FFT dimensions: ( 180, 180, 180)

     Estimated max dynamical RAM per process >       5.02 GB

     Estimated total dynamical RAM >      18.26 GB
     Generating pointlists ...
     new r_m :   0.4125 (alat units) 15.5902 (a.u.) for type    1
     new r_m :   0.4125 (alat units) 15.5902 (a.u.) for type    2
     new r_m :   0.4125 (alat units) 15.5902 (a.u.) for type    3
     new r_m :   0.4125 (alat units) 15.5902 (a.u.) for type    4

     Initial potential from superposition of free atoms

     starting charge      13.9987, renormalised to      14.0000

     negative rho (up, down):  8.398E-03 5.599E-03
     Starting wfcs are   13 randomized atomic wfcs
     Checking if some PAW data can be deallocated... 

     total cpu time spent up to now is        5.2 secs

     per-process dynamical memory:  1368.3 Mb

     Self-consistent Calculation

     iteration #  1     ecut=    50.00 Ry     beta= 0.20
     Davidson diagonalization with overlap
     ethr =  1.00E-02,  avg # of iterations =  2.0

     Threshold (ethr) on eigenvalues was too large:
     Diagonalizing with lowered threshold

     Davidson diagonalization with overlap
     ethr =  1.53E-04,  avg # of iterations =  2.0

     negative rho (up, down):  7.719E-03 5.308E-03

     total cpu time spent up to now is        7.6 secs

     total energy              =    -147.14655201 Ry
     estimated scf accuracy    <       0.02527011 Ry

     total magnetization       =     6.00 Bohr mag/cell
     absolute magnetization    =     6.00 Bohr mag/cell

     iteration #  2     ecut=    50.00 Ry     beta= 0.20
     Davidson diagonalization with overlap
     ethr =  1.81E-04,  avg # of iterations =  1.0

     negative rho (up, down):  7.036E-03 6.108E-03

     total cpu time spent up to now is        9.2 secs

     total energy              =    -147.22790905 Ry
     estimated scf accuracy    <       0.01744837 Ry

     total magnetization       =     6.00 Bohr mag/cell
     absolute magnetization    =     6.00 Bohr mag/cell

     iteration #  3     ecut=    50.00 Ry     beta= 0.20
     Davidson diagonalization with overlap
     ethr =  1.25E-04,  avg # of iterations =  4.5

     negative rho (up, down):  5.203E-03 4.254E-03

     total cpu time spent up to now is       10.9 secs

     total energy              =    -147.23154771 Ry
     estimated scf accuracy    <       0.00187259 Ry

     total magnetization       =     6.00 Bohr mag/cell
     absolute magnetization    =     6.00 Bohr mag/cell

     iteration #  4     ecut=    50.00 Ry     beta= 0.20
     Davidson diagonalization with overlap
     ethr =  1.34E-05,  avg # of iterations =  5.5

     negative rho (up, down):  3.745E-03 2.879E-03

     total cpu time spent up to now is       12.7 secs

     total energy              =    -147.23161176 Ry
     estimated scf accuracy    <       0.00098525 Ry

     total magnetization       =     6.00 Bohr mag/cell
     absolute magnetization    =     6.00 Bohr mag/cell

     iteration #  5     ecut=    50.00 Ry     beta= 0.20
     Davidson diagonalization with overlap
     ethr =  7.04E-06,  avg # of iterations =  3.5

     negative rho (up, down):  3.224E-03 2.574E-03

     total cpu time spent up to now is       14.4 secs

     total energy              =    -147.23322788 Ry
     estimated scf accuracy    <       0.00038697 Ry

     total magnetization       =     6.00 Bohr mag/cell
     absolute magnetization    =     6.00 Bohr mag/cell

     iteration #  6     ecut=    50.00 Ry     beta= 0.20
     Davidson diagonalization with overlap
     ethr =  2.76E-06,  avg # of iterations =  8.0

     negative rho (up, down):  3.317E-03 1.790E-02

     total cpu time spent up to now is       16.2 secs

     total energy              =    -147.24621237 Ry
     estimated scf accuracy    <       0.00020025 Ry

     total magnetization       =     6.00 Bohr mag/cell
     absolute magnetization    =     6.00 Bohr mag/cell

     iteration #  7     ecut=    50.00 Ry     beta= 0.20
     Davidson diagonalization with overlap
     ethr =  1.43E-06,  avg # of iterations = 12.5

     negative rho (up, down):  4.957E-03 4.242E-03

     total cpu time spent up to now is       18.1 secs

     total energy              =    -147.23154220 Ry
     estimated scf accuracy    <       0.00016569 Ry

     total magnetization       =     6.00 Bohr mag/cell
     absolute magnetization    =     6.00 Bohr mag/cell

     iteration #  8     ecut=    50.00 Ry     beta= 0.20
     Davidson diagonalization with overlap
     ethr =  1.18E-06,  avg # of iterations = 12.5

     negative rho (up, down):  7.310E-03 1.191E-02

     total cpu time spent up to now is       20.0 secs

     total energy              =    -147.24440733 Ry
     estimated scf accuracy    <       0.00094342 Ry

     total magnetization       =     6.00 Bohr mag/cell
     absolute magnetization    =     6.00 Bohr mag/cell

     iteration #  9     ecut=    50.00 Ry     beta= 0.20
     Davidson diagonalization with overlap
     ethr =  1.18E-06,  avg # of iterations =  6.0

     negative rho (up, down):  7.599E-03 8.578E-03

     total cpu time spent up to now is       21.8 secs

     total energy              =    -147.23321565 Ry
     estimated scf accuracy    <       0.00015683 Ry

     total magnetization       =     6.00 Bohr mag/cell
     absolute magnetization    =     6.00 Bohr mag/cell

     iteration # 10     ecut=    50.00 Ry     beta= 0.20
     Davidson diagonalization with overlap
     ethr =  1.12E-06,  avg # of iterations =  5.5

     negative rho (up, down):  7.310E-03 1.041E-02

     total cpu time spent up to now is       23.7 secs

     total energy              =    -147.24231444 Ry
     estimated scf accuracy    <       0.00070244 Ry

     total magnetization       =     6.00 Bohr mag/cell
     absolute magnetization    =     6.00 Bohr mag/cell

     iteration # 11     ecut=    50.00 Ry     beta= 0.20
     Davidson diagonalization with overlap
     ethr =  1.12E-06,  avg # of iterations =  4.5

     negative rho (up, down):  6.841E-03 8.058E-03

     total cpu time spent up to now is       25.5 secs

     total energy              =    -147.23389411 Ry
     estimated scf accuracy    <       0.00026763 Ry

     total magnetization       =     6.00 Bohr mag/cell
     absolute magnetization    =     6.00 Bohr mag/cell

     iteration # 12     ecut=    50.00 Ry     beta= 0.20
     Davidson diagonalization with overlap
     ethr =  1.12E-06,  avg # of iterations =  4.5

     negative rho (up, down):  7.566E-03 9.441E-03

     total cpu time spent up to now is       27.4 secs

     total energy              =    -147.23479915 Ry
     estimated scf accuracy    <       0.00071506 Ry

     total magnetization       =     6.00 Bohr mag/cell
     absolute magnetization    =     6.00 Bohr mag/cell

     iteration # 13     ecut=    50.00 Ry     beta= 0.20
     Davidson diagonalization with overlap
     ethr =  1.12E-06,  avg # of iterations =  3.0

     negative rho (up, down):  7.519E-03 9.359E-03

     total cpu time spent up to now is       29.2 secs

     total energy              =    -147.23477956 Ry
     estimated scf accuracy    <       0.00030729 Ry

     total magnetization       =     6.00 Bohr mag/cell
     absolute magnetization    =     6.00 Bohr mag/cell

     iteration # 14     ecut=    50.00 Ry     beta= 0.20
     Davidson diagonalization with overlap
     ethr =  1.12E-06,  avg # of iterations =  1.5

     negative rho (up, down):  7.743E-03 8.410E-03

     total cpu time spent up to now is       31.0 secs

     total energy              =    -147.23287938 Ry
     estimated scf accuracy    <       0.00043886 Ry

     total magnetization       =     6.00 Bohr mag/cell
     absolute magnetization    =     6.00 Bohr mag/cell

     iteration # 15     ecut=    50.00 Ry     beta= 0.20
     Davidson diagonalization with overlap
     ethr =  1.12E-06,  avg # of iterations =  3.0

     negative rho (up, down):  7.404E-03 8.072E-03

     total cpu time spent up to now is       32.9 secs

     total energy              =    -147.23377534 Ry
     estimated scf accuracy    <       0.00031901 Ry

     total magnetization       =     6.00 Bohr mag/cell
     absolute magnetization    =     6.00 Bohr mag/cell

     iteration # 16     ecut=    50.00 Ry     beta= 0.20
     Davidson diagonalization with overlap
     ethr =  1.12E-06,  avg # of iterations =  3.5

     negative rho (up, down):  7.367E-03 8.183E-03

     total cpu time spent up to now is       34.7 secs

     total energy              =    -147.23476971 Ry
     estimated scf accuracy    <       0.00002354 Ry

     total magnetization       =     6.00 Bohr mag/cell
     absolute magnetization    =     6.00 Bohr mag/cell

     iteration # 17     ecut=    50.00 Ry     beta= 0.20
     Davidson diagonalization with overlap
     ethr =  1.68E-07,  avg # of iterations =  3.5

     negative rho (up, down):  7.384E-03 8.885E-03

     total cpu time spent up to now is       36.6 secs

     total energy              =    -147.23641937 Ry
     estimated scf accuracy    <       0.00001283 Ry

     total magnetization       =     6.00 Bohr mag/cell
     absolute magnetization    =     6.00 Bohr mag/cell

     iteration # 18     ecut=    50.00 Ry     beta= 0.20
     Davidson diagonalization with overlap
     ethr =  9.17E-08,  avg # of iterations =  4.5

     negative rho (up, down):  7.414E-03 8.962E-03

     total cpu time spent up to now is       38.4 secs

     total energy              =    -147.23643073 Ry
     estimated scf accuracy    <       0.00002630 Ry

     total magnetization       =     6.00 Bohr mag/cell
     absolute magnetization    =     6.00 Bohr mag/cell

     iteration # 19     ecut=    50.00 Ry     beta= 0.20
     Davidson diagonalization with overlap
     ethr =  9.17E-08,  avg # of iterations =  1.0

     negative rho (up, down):  7.314E-03 8.816E-03

     total cpu time spent up to now is       40.2 secs

     total energy              =    -147.23503297 Ry
     estimated scf accuracy    <       0.00002383 Ry

     total magnetization       =     6.00 Bohr mag/cell
     absolute magnetization    =     6.00 Bohr mag/cell

     iteration # 20     ecut=    50.00 Ry     beta= 0.20
     Davidson diagonalization with overlap
     ethr =  9.17E-08,  avg # of iterations =  4.5

     negative rho (up, down):  7.261E-03 8.368E-03

     total cpu time spent up to now is       42.1 secs

     total energy              =    -147.23437436 Ry
     estimated scf accuracy    <       0.00000368 Ry

     total magnetization       =     6.00 Bohr mag/cell
     absolute magnetization    =     6.00 Bohr mag/cell

     iteration # 21     ecut=    50.00 Ry     beta= 0.20
     Davidson diagonalization with overlap
     ethr =  2.63E-08,  avg # of iterations =  2.5

     negative rho (up, down):  7.247E-03 8.412E-03

     total cpu time spent up to now is       43.9 secs

     total energy              =    -147.23464653 Ry
     estimated scf accuracy    <       0.00000209 Ry

     total magnetization       =     6.00 Bohr mag/cell
     absolute magnetization    =     6.00 Bohr mag/cell

     iteration # 22     ecut=    50.00 Ry     beta= 0.20
     Davidson diagonalization with overlap
     ethr =  1.49E-08,  avg # of iterations =  2.5

     negative rho (up, down):  7.253E-03 8.205E-03

     total cpu time spent up to now is       45.8 secs

     total energy              =    -147.23391892 Ry
     estimated scf accuracy    <       0.00000330 Ry

     total magnetization       =     6.00 Bohr mag/cell
     absolute magnetization    =     6.00 Bohr mag/cell

     iteration # 23     ecut=    50.00 Ry     beta= 0.20
     Davidson diagonalization with overlap
     ethr =  1.49E-08,  avg # of iterations =  3.0

     negative rho (up, down):  7.349E-03 8.280E-03

     total cpu time spent up to now is       47.6 secs

     total energy              =    -147.23369110 Ry
     estimated scf accuracy    <       0.00000367 Ry

     total magnetization       =     6.00 Bohr mag/cell
     absolute magnetization    =     6.00 Bohr mag/cell

     iteration # 24     ecut=    50.00 Ry     beta= 0.20
     Davidson diagonalization with overlap
     ethr =  1.49E-08,  avg # of iterations =  2.5

     negative rho (up, down):  7.350E-03 8.477E-03

     total cpu time spent up to now is       49.4 secs

     total energy              =    -147.23503309 Ry
     estimated scf accuracy    <       0.00000234 Ry

     total magnetization       =     6.00 Bohr mag/cell
     absolute magnetization    =     6.00 Bohr mag/cell

     iteration # 25     ecut=    50.00 Ry     beta= 0.20
     Davidson diagonalization with overlap
     ethr =  1.49E-08,  avg # of iterations =  3.5

     negative rho (up, down):  7.235E-03 8.520E-03

     total cpu time spent up to now is       51.3 secs

     total energy              =    -147.23585125 Ry
     estimated scf accuracy    <       0.00001010 Ry

     total magnetization       =     6.00 Bohr mag/cell
     absolute magnetization    =     6.00 Bohr mag/cell

     iteration # 26     ecut=    50.00 Ry     beta= 0.20
     Davidson diagonalization with overlap
     ethr =  1.49E-08,  avg # of iterations =  3.0

     negative rho (up, down):  7.254E-03 8.404E-03

     total cpu time spent up to now is       53.1 secs

     total energy              =    -147.23470209 Ry
     estimated scf accuracy    <       0.00001050 Ry

     total magnetization       =     6.00 Bohr mag/cell
     absolute magnetization    =     6.00 Bohr mag/cell

     iteration # 27     ecut=    50.00 Ry     beta= 0.20
     Davidson diagonalization with overlap
     ethr =  1.49E-08,  avg # of iterations =  3.5

     negative rho (up, down):  7.186E-03 8.263E-03

     total cpu time spent up to now is       55.0 secs

     total energy              =    -147.23445273 Ry
     estimated scf accuracy    <       0.00000122 Ry

     total magnetization       =     6.00 Bohr mag/cell
     absolute magnetization    =     6.00 Bohr mag/cell

     iteration # 28     ecut=    50.00 Ry     beta= 0.20
     Davidson diagonalization with overlap
     ethr =  8.72E-09,  avg # of iterations =  3.0

     negative rho (up, down):  7.246E-03 8.345E-03

     total cpu time spent up to now is       56.8 secs

     total energy              =    -147.23450459 Ry
     estimated scf accuracy    <       0.00000133 Ry

     total magnetization       =     6.00 Bohr mag/cell
     absolute magnetization    =     6.00 Bohr mag/cell

     iteration # 29     ecut=    50.00 Ry     beta= 0.20
     Davidson diagonalization with overlap
     ethr =  8.72E-09,  avg # of iterations =  2.5

     negative rho (up, down):  7.309E-03 8.619E-03
 
     Magnetic moment per site  (integrated on atomic sphere of radius R)
     atom   1 (R=0.413)  charge= 14.0000  magn=  6.0000

     total cpu time spent up to now is       58.2 secs

     End of self-consistent calculation

 ------ SPIN UP ------------


          k = 0.0000 0.0000 0.0000 (167665 PWs)   bands (ev):

   -64.7876 -39.0743 -39.0739 -39.0734  -4.5996  -4.5464  -4.5463  -4.5460
    -4.5456  -4.5455  -1.3091

 ------ SPIN DOWN ----------


          k = 0.0000 0.0000 0.0000 (167665 PWs)   bands (ev):

   -62.0981 -36.0628 -36.0623 -36.0619  -1.8803  -1.1807  -1.1798  -1.1796
    -1.1777  -1.1777  -0.2724

     the Fermi energy is    -3.4295 ev

!    total energy              =    -147.23639776 Ry
     estimated scf accuracy    <       0.00000097 Ry
     smearing contrib. (-TS)   =      -0.00000000 Ry
     internal energy E=F+TS    =    -147.23639776 Ry

     The total energy is F=E-TS. E is the sum of the following terms:
     one-electron contribution =    -202.98388046 Ry
     hartree contribution      =      98.57301536 Ry
     xc contribution           =     -28.30662185 Ry
     ewald contribution        =     -14.51890851 Ry
     DFT-D3 Dispersion         =      -0.00000231 Ry
     one-center paw contrib.   =       0.00000000 Ry

     total magnetization       =     6.00 Bohr mag/cell
     absolute magnetization    =     6.00 Bohr mag/cell

     convergence has been achieved in  29 iterations

     negative rho (up, down):  7.309E-03 8.619E-03

     Forces acting on atoms (cartesian axes, Ry/au):

     atom    1 type  1   force =     0.00000000    0.00000000    0.00000000

     Total force =     0.000000     Total SCF correction =     0.000467
     Message from routine punch:
     Nothing written, as per user request (disk_io='none')
 
     init_run     :      3.80s CPU      4.68s WALL (       1 calls)
     electrons    :     67.29s CPU     53.05s WALL (       1 calls)
     forces       :      0.36s CPU      0.37s WALL (       1 calls)
     force_dftd3  :      0.00s CPU      0.00s WALL (       1 calls)

     Called by init_run:
     wfcinit      :      0.02s CPU      0.45s WALL (       1 calls)
     potinit      :      2.03s CPU      2.11s WALL (       1 calls)
     hinit0       :      0.67s CPU      0.89s WALL (       1 calls)

     Called by electrons:
     c_bands      :      1.19s CPU      1.24s WALL (      30 calls)
     sum_band     :      8.26s CPU      8.33s WALL (      30 calls)
     v_of_rho     :      5.33s CPU      4.94s WALL (      30 calls)
     newd         :      8.58s CPU      8.61s WALL (      30 calls)
                                        8.61s GPU  (      30 calls)
     PAW_pot      :      1.38s CPU      1.38s WALL (      30 calls)
     mix_rho      :     18.11s CPU     13.21s WALL (      30 calls)
     energy_dftd3 :      0.00s CPU      0.00s WALL (       1 calls)

     Called by c_bands:
     init_us_2    :      0.02s CPU      0.02s WALL (      61 calls)
     regterg      :      0.86s CPU      0.90s WALL (      30 calls)

     Called by *egterg:
     rdiaghg      :      0.05s CPU      0.05s WALL (     131 calls)
                                        0.05s GPU  (     131 calls)
     h_psi        :      0.65s CPU      1.10s WALL (     133 calls)
                                        1.10s GPU  (     133 calls)
     s_psi        :      0.01s CPU      0.01s WALL (     133 calls)
     g_psi        :      0.00s CPU      0.00s WALL (     102 calls)
                                        0.00s GPU  (     102 calls)

     Called by h_psi:
     h_psi:calbec :      0.02s CPU      0.02s WALL (     133 calls)
                                        0.02s GPU  (     133 calls)
     vloc_psi     :      0.47s CPU      0.92s WALL (     133 calls)
                                        0.92s GPU  (     133 calls)
     add_vuspsi   :      0.01s CPU      0.01s WALL (     133 calls)
                                        0.01s GPU  (     133 calls)

     General routines
     calbec       :      0.02s CPU      0.02s WALL (     167 calls)
     fft          :     14.41s CPU      7.63s WALL (     554 calls)
                                        1.09s GPU  (     494 calls)
     ffts         :      8.06s CPU      5.40s WALL (    3534 calls)
                                        2.65s GPU  (    3474 calls)
     fftw         :      0.28s CPU      0.87s WALL (     446 calls)
                                        0.87s GPU  (     446 calls)
     interpolate  :     20.61s CPU     11.35s WALL (      60 calls)
 
     Parallel routines
 
     PWSCF        :   1m11.94s CPU     58.70s WALL

 
   This run was terminated on:  17:14: 2  12Nov2025            

=------------------------------------------------------------------------------=
   JOB DONE.
=------------------------------------------------------------------------------=
