
     Program PWSCF v.7.3.1 starts on 15Nov2025 at 10:46:26 

     This program is part of the open-source Quantum ESPRESSO suite
     for quantum simulation of materials; please cite
         "P. Giannozzi et al., J. Phys.:Condens. Matter 21 395502 (2009);
         "P. Giannozzi et al., J. Phys.:Condens. Matter 29 465901 (2017);
         "P. Giannozzi et al., J. Chem. Phys. 152 154105 (2020);
          URL http://www.quantum-espresso.org", 
     in publications or presentations arising from this work. More details at
     http://www.quantum-espresso.org/quote

     Parallel version (MPI & OpenMP), running on      32 processor cores
     Number of MPI processes:                 4
     Threads/MPI process:                     8

     MPI processes distributed on     1 nodes
     501181 MiB available memory on the printing compute node when the environment starts
 
     Waiting for input...
     Reading input from standard input

     Current dimensions of program PWSCF are:
     Max number of different atomic species (ntypx) = 10
     Max number of k-points (npk) =  40000
     Max angular momentum in pseudopotentials (lmaxx) =  4
     file O.pbe-n-kjpaw_psl.1.0.0.UPF: wavefunction(s)  2S 2P renormalized
     file H.pbe-kjpaw_psl.1.0.0.UPF: wavefunction(s)  1S renormalized

     gamma-point specific algorithms are used
 
     K-points division:     npool     =       2
     R & G space division:  proc/nbgrp/npool/nimage =       2
     Subspace diagonalization in iterative solution of the eigenvalue problem:
     a serial algorithm will be used

 
     Parallelization info
     --------------------
     sticks:   dense  smooth     PW     G-vecs:    dense   smooth      PW
     Min       23082   11538   2885              3794045  1341403  167663
     Max       23083   11541   2886              3794046  1341406  167666
     Sum       46165   23079   5771              7588091  2682809  335329
 
     Using Slab Decomposition
 


     bravais-lattice index     =            0
     lattice parameter (alat)  =      37.7945  a.u.
     unit-cell volume          =   56166.3880 (a.u.)^3
     number of atoms/cell      =            1
     number of atomic types    =            4
     number of electrons       =         1.00
     number of Kohn-Sham states=            5
     kinetic-energy cutoff     =      50.0000  Ry
     charge density cutoff     =     400.0000  Ry
     scf convergence threshold =      1.0E-06
     mixing beta               =       0.2000
     number of iterations used =            8  local-TF  mixing
     Exchange-correlation= SLA  PW   PBX  PBC
                           (   1   4   3   4   0   0   0)

     GPU acceleration is ACTIVE.  4 visible GPUs per MPI rank
     GPU-aware MPI enabled


     celldm(1)=  37.794522  celldm(2)=   0.000000  celldm(3)=   0.000000
     celldm(4)=   0.000000  celldm(5)=   0.000000  celldm(6)=   0.000000

     crystal axes: (cart. coord. in units of alat)
               a(1) = (   1.000000   0.000000   0.000000 )  
               a(2) = (   0.000000   1.015000   0.000000 )  
               a(3) = (   0.000000   0.000000   1.025000 )  

     reciprocal axes: (cart. coord. in units 2 pi/alat)
               b(1) = (  1.000000  0.000000  0.000000 )  
               b(2) = (  0.000000  0.985222  0.000000 )  
               b(3) = (  0.000000  0.000000  0.975610 )  


     PseudoPot. # 1 for Mo read from file:
     /leonardo/home/userexternal/apacini0/PSEUDO/Mo.pbe-spn-rrkjus_psl.0.2.UPF
     MD5 check sum: fc6921ed78563293cf4f0ffad66b730e
     Pseudo is Ultrasoft + core correction, Zval = 14.0
     Generated using "atomic" code by A. Dal Corso  v.5.0.2 svn rev. 9415
     Using radial grid of 1229 points,  6 beta functions with: 
                l(1) =   0
                l(2) =   0
                l(3) =   1
                l(4) =   1
                l(5) =   2
                l(6) =   2
     Q(r) pseudized with 0 coefficients 


     PseudoPot. # 2 for S  read from file:
     /leonardo/home/userexternal/apacini0/PSEUDO/S.pbe-n-rrkjus_psl.0.1.UPF
     MD5 check sum: bcce8fa2324dad47c8296339772e3939
     Pseudo is Ultrasoft + core correction, Zval =  6.0
     Generated using "atomic" code by A. Dal Corso  v.5.0.2 svn rev. 9415
     Using radial grid of 1151 points,  4 beta functions with: 
                l(1) =   0
                l(2) =   0
                l(3) =   1
                l(4) =   1
     Q(r) pseudized with 0 coefficients 


     PseudoPot. # 3 for O  read from file:
     /leonardo/home/userexternal/apacini0/PSEUDO/O.pbe-n-kjpaw_psl.1.0.0.UPF
     MD5 check sum: e99d9cef9b487d1ca56f5b95ecd0fd7a
     Pseudo is Projector augmented-wave + core cor, Zval =  6.0
     Generated using &quot;atomic&quot; code by A. Dal Corso  v.6.3
     Shape of augmentation charge: PSQ
     Using radial grid of 1095 points,  4 beta functions with: 
                l(1) =   0
                l(2) =   0
                l(3) =   1
                l(4) =   1
     Q(r) pseudized with 0 coefficients 


     PseudoPot. # 4 for H  read from file:
     /leonardo/home/userexternal/apacini0/PSEUDO/H.pbe-kjpaw_psl.1.0.0.UPF
     MD5 check sum: d81a744832360e4a8af0b0b5b123bc2a
     Pseudo is Projector augmented-wave, Zval =  1.0
     Generated using &quot;atomic&quot; code by A. Dal Corso  v.6.3MaX
     Shape of augmentation charge: PSQ
     Using radial grid of  929 points,  2 beta functions with: 
                l(1) =   0
                l(2) =   0
     Q(r) pseudized with 0 coefficients 


     atomic species   valence    mass     pseudopotential
     Mo               14.00    95.95000     Mo( 1.00)
     S                 6.00    32.06500     S ( 1.00)
     O                 6.00    15.99900     O ( 1.00)
     H                 1.00     1.00800     H ( 1.00)

     Starting magnetic structure 
     atomic species   magnetization
     Mo              0.200
     S               0.200
     O               0.200
     H               0.200

     No symmetry found



   Cartesian axes

     site n.     atom                  positions (alat units)
         1        H      tau(   1) = (   0.0000000   0.0000000   0.0000000  )

     --------------------------------------------
     DFT-D3 Dispersion Correction (3-body terms):
     --------------------------------------------
       Reference C6 values for interpolation: 

         atom   Coordination number   C6
         H          0.912             6.05
         H          0.000            15.18
         O          0.000            31.01
         O          0.993            25.63
         O          1.989            20.74
         S          0.000           268.01
         S          0.995           261.99
         S          1.990           251.62
         Mo         0.000          1691.79
         Mo         1.942          1004.01
         Mo        11.056           674.22

       Values used:

         atom   Coordination number  R0_AB[au]  C6      C8
         H          0.000            2.062     14.79    178.78

         Molecular C6 ( Ry / a.u.^6 ) =        14.79


     number of k points=     1  Gaussian smearing, width (Ry)=  0.0200
                       cart. coord. in units 2pi/alat
        k(    1) = (   0.0000000   0.0000000   0.0000000), wk =   1.0000000

     Dense  grid:  3794046 G-vectors     FFT dimensions: ( 243, 250, 250)

     Smooth grid:  1341405 G-vectors     FFT dimensions: ( 180, 180, 180)

     Estimated max dynamical RAM per process >       4.99 GB

     Estimated total dynamical RAM >      18.15 GB
     Generating pointlists ...
     new r_m :   0.4125 (alat units) 15.5902 (a.u.) for type    1
     new r_m :   0.4125 (alat units) 15.5902 (a.u.) for type    2
     new r_m :   0.4125 (alat units) 15.5902 (a.u.) for type    3
     new r_m :   0.4125 (alat units) 15.5902 (a.u.) for type    4

     Initial potential from superposition of free atoms

     starting charge       1.0000, renormalised to       1.0000

     negative rho (up, down):  7.840E-05 5.227E-05
     Starting wfcs are    1 randomized atomic wfcs +    4 random wfcs
     Checking if some PAW data can be deallocated... 

     total cpu time spent up to now is        5.0 secs

     per-process dynamical memory:  1346.8 Mb

     Self-consistent Calculation

     iteration #  1     ecut=    50.00 Ry     beta= 0.20
     Davidson diagonalization with overlap
     ethr =  1.00E-02,  avg # of iterations =  6.0

     Threshold (ethr) on eigenvalues was too large:
     Diagonalizing with lowered threshold

     Davidson diagonalization with overlap
     ethr =  6.15E-04,  avg # of iterations =  4.0

     negative rho (up, down):  1.577E-05 1.966E-06

     total cpu time spent up to now is        7.3 secs

     total energy              =      -0.95702305 Ry
     estimated scf accuracy    <       0.00621393 Ry

     total magnetization       =     0.94 Bohr mag/cell
     absolute magnetization    =     0.94 Bohr mag/cell

     iteration #  2     ecut=    50.00 Ry     beta= 0.20
     Davidson diagonalization with overlap
     ethr =  6.21E-04,  avg # of iterations =  1.0

     negative rho (up, down):  1.862E-09 4.348E-02

     total cpu time spent up to now is        9.0 secs

     total energy              =      -1.01261819 Ry
     estimated scf accuracy    <       0.00507814 Ry

     total magnetization       =     1.00 Bohr mag/cell
     absolute magnetization    =     1.00 Bohr mag/cell

     iteration #  3     ecut=    50.00 Ry     beta= 0.20
     Davidson diagonalization with overlap
     ethr =  5.08E-04,  avg # of iterations =  2.5

     total cpu time spent up to now is       10.6 secs

     total energy              =      -0.97375646 Ry
     estimated scf accuracy    <       0.00114799 Ry

     total magnetization       =     1.00 Bohr mag/cell
     absolute magnetization    =     1.00 Bohr mag/cell

     iteration #  4     ecut=    50.00 Ry     beta= 0.20
     Davidson diagonalization with overlap
     ethr =  1.15E-04,  avg # of iterations = 13.5

     total cpu time spent up to now is       12.4 secs

     total energy              =      -0.98412990 Ry
     estimated scf accuracy    <       0.00257774 Ry

     total magnetization       =     1.00 Bohr mag/cell
     absolute magnetization    =     1.00 Bohr mag/cell

     iteration #  5     ecut=    50.00 Ry     beta= 0.20
     Davidson diagonalization with overlap
     ethr =  1.15E-04,  avg # of iterations =  1.0

     total cpu time spent up to now is       14.0 secs

     total energy              =      -0.99638719 Ry
     estimated scf accuracy    <       0.00125575 Ry

     total magnetization       =     1.00 Bohr mag/cell
     absolute magnetization    =     1.00 Bohr mag/cell

     iteration #  6     ecut=    50.00 Ry     beta= 0.20
     Davidson diagonalization with overlap
     ethr =  1.15E-04,  avg # of iterations =  4.5

     total cpu time spent up to now is       15.8 secs

     total energy              =      -0.99432447 Ry
     estimated scf accuracy    <       0.00026529 Ry

     total magnetization       =     1.00 Bohr mag/cell
     absolute magnetization    =     1.00 Bohr mag/cell

     iteration #  7     ecut=    50.00 Ry     beta= 0.20
     Davidson diagonalization with overlap
     ethr =  2.65E-05,  avg # of iterations =  6.0

     negative rho (up, down):  6.813E-04 6.816E-04

     total cpu time spent up to now is       17.6 secs

     total energy              =      -0.95266729 Ry
     estimated scf accuracy    <       0.00053107 Ry

     total magnetization       =     1.00 Bohr mag/cell
     absolute magnetization    =     1.00 Bohr mag/cell

     iteration #  8     ecut=    50.00 Ry     beta= 0.20
     Davidson diagonalization with overlap
     ethr =  2.65E-05,  avg # of iterations =  9.0

     negative rho (up, down):  1.028E-04 1.185E-04

     total cpu time spent up to now is       19.4 secs

     total energy              =      -0.98455912 Ry
     estimated scf accuracy    <       0.00814154 Ry

     total magnetization       =     1.00 Bohr mag/cell
     absolute magnetization    =     1.00 Bohr mag/cell

     iteration #  9     ecut=    50.00 Ry     beta= 0.20
     Davidson diagonalization with overlap
     ethr =  2.65E-05,  avg # of iterations =  6.5

     negative rho (up, down):  2.302E-04 2.720E-04

     total cpu time spent up to now is       21.2 secs

     total energy              =      -0.99276593 Ry
     estimated scf accuracy    <       0.00164785 Ry

     total magnetization       =     1.00 Bohr mag/cell
     absolute magnetization    =     1.00 Bohr mag/cell

     iteration # 10     ecut=    50.00 Ry     beta= 0.20
     Davidson diagonalization with overlap
     ethr =  2.65E-05,  avg # of iterations =  1.5

     negative rho (up, down):  2.378E-04 1.558E-03

     total cpu time spent up to now is       23.0 secs

     total energy              =      -1.01909019 Ry
     estimated scf accuracy    <       0.00052152 Ry

     total magnetization       =     1.00 Bohr mag/cell
     absolute magnetization    =     1.00 Bohr mag/cell

     iteration # 11     ecut=    50.00 Ry     beta= 0.20
     Davidson diagonalization with overlap
     ethr =  2.65E-05,  avg # of iterations =  5.5

     negative rho (up, down):  2.180E-04 2.230E-03

     total cpu time spent up to now is       24.8 secs

     total energy              =      -1.03015142 Ry
     estimated scf accuracy    <       0.00000876 Ry

     total magnetization       =     1.00 Bohr mag/cell
     absolute magnetization    =     1.00 Bohr mag/cell

     iteration # 12     ecut=    50.00 Ry     beta= 0.20
     Davidson diagonalization with overlap
     ethr =  8.76E-07,  avg # of iterations = 10.5

     negative rho (up, down):  1.431E-04 5.562E-04

     total cpu time spent up to now is       26.7 secs

     total energy              =      -1.01934901 Ry
     estimated scf accuracy    <       0.00001087 Ry

     total magnetization       =     1.00 Bohr mag/cell
     absolute magnetization    =     1.00 Bohr mag/cell

     iteration # 13     ecut=    50.00 Ry     beta= 0.20
     Davidson diagonalization with overlap
     ethr =  8.76E-07,  avg # of iterations = 13.5

     negative rho (up, down):  1.285E-04 3.129E-04

     total cpu time spent up to now is       28.6 secs

     total energy              =      -1.01220780 Ry
     estimated scf accuracy    <       0.00002115 Ry

     total magnetization       =     1.00 Bohr mag/cell
     absolute magnetization    =     1.00 Bohr mag/cell

     iteration # 14     ecut=    50.00 Ry     beta= 0.20
     Davidson diagonalization with overlap
     ethr =  8.76E-07,  avg # of iterations =  7.5

     negative rho (up, down):  1.545E-04 4.141E-04

     total cpu time spent up to now is       30.4 secs

     total energy              =      -1.00869729 Ry
     estimated scf accuracy    <       0.00001900 Ry

     total magnetization       =     1.00 Bohr mag/cell
     absolute magnetization    =     1.00 Bohr mag/cell

     iteration # 15     ecut=    50.00 Ry     beta= 0.20
     Davidson diagonalization with overlap
     ethr =  8.76E-07,  avg # of iterations =  4.5

     negative rho (up, down):  1.423E-04 1.330E-03

     total cpu time spent up to now is       32.3 secs

     total energy              =      -1.02262548 Ry
     estimated scf accuracy    <       0.00003696 Ry

     total magnetization       =     1.00 Bohr mag/cell
     absolute magnetization    =     1.00 Bohr mag/cell

     iteration # 16     ecut=    50.00 Ry     beta= 0.20
     Davidson diagonalization with overlap
     ethr =  8.76E-07,  avg # of iterations =  4.5

     negative rho (up, down):  1.634E-04 1.302E-03

     total cpu time spent up to now is       34.1 secs

     total energy              =      -1.02182932 Ry
     estimated scf accuracy    <       0.00000238 Ry

     total magnetization       =     1.00 Bohr mag/cell
     absolute magnetization    =     1.00 Bohr mag/cell

     iteration # 17     ecut=    50.00 Ry     beta= 0.20
     Davidson diagonalization with overlap
     ethr =  2.38E-07,  avg # of iterations =  2.0

     negative rho (up, down):  1.763E-04 1.395E-03

     total cpu time spent up to now is       36.3 secs

     total energy              =      -1.02354898 Ry
     estimated scf accuracy    <       0.00000289 Ry

     total magnetization       =     1.00 Bohr mag/cell
     absolute magnetization    =     1.00 Bohr mag/cell

     iteration # 18     ecut=    50.00 Ry     beta= 0.20
     Davidson diagonalization with overlap
     ethr =  2.38E-07,  avg # of iterations =  3.0

     negative rho (up, down):  1.369E-04 1.088E-03

     total cpu time spent up to now is       38.1 secs

     total energy              =      -1.02368342 Ry
     estimated scf accuracy    <       0.00000372 Ry

     total magnetization       =     1.00 Bohr mag/cell
     absolute magnetization    =     1.00 Bohr mag/cell

     iteration # 19     ecut=    50.00 Ry     beta= 0.20
     Davidson diagonalization with overlap
     ethr =  2.38E-07,  avg # of iterations =  2.0

     negative rho (up, down):  1.755E-04 1.415E-03

     total cpu time spent up to now is       39.9 secs

     total energy              =      -1.02564693 Ry
     estimated scf accuracy    <       0.00000154 Ry

     total magnetization       =     1.00 Bohr mag/cell
     absolute magnetization    =     1.00 Bohr mag/cell

     iteration # 20     ecut=    50.00 Ry     beta= 0.20
     Davidson diagonalization with overlap
     ethr =  1.54E-07,  avg # of iterations =  3.5

     negative rho (up, down):  1.975E-04 8.456E-04

     total cpu time spent up to now is       41.7 secs

     total energy              =      -1.01920400 Ry
     estimated scf accuracy    <       0.00000239 Ry

     total magnetization       =     1.00 Bohr mag/cell
     absolute magnetization    =     1.00 Bohr mag/cell

     iteration # 21     ecut=    50.00 Ry     beta= 0.20
     Davidson diagonalization with overlap
     ethr =  1.54E-07,  avg # of iterations =  5.0

     negative rho (up, down):  2.038E-04 1.024E-03

     total cpu time spent up to now is       43.6 secs

     total energy              =      -1.02475531 Ry
     estimated scf accuracy    <       0.00000324 Ry

     total magnetization       =     1.00 Bohr mag/cell
     absolute magnetization    =     1.00 Bohr mag/cell

     iteration # 22     ecut=    50.00 Ry     beta= 0.20
     Davidson diagonalization with overlap
     ethr =  1.54E-07,  avg # of iterations =  6.0

     negative rho (up, down):  8.587E-05 3.687E-15
 
     Magnetic moment per site  (integrated on atomic sphere of radius R)
     atom   1 (R=0.413)  charge=  1.0000  magn=  1.0000

     total cpu time spent up to now is       44.9 secs

     End of self-consistent calculation

 ------ SPIN UP ------------


          k = 0.0000 0.0000 0.0000 (167665 PWs)   bands (ev):

    -7.9178  -0.1509   0.1264   0.1788   0.1837

 ------ SPIN DOWN ----------


          k = 0.0000 0.0000 0.0000 (167665 PWs)   bands (ev):

    -1.8584  -0.0739   0.2594   0.2613   0.2763

     the Fermi energy is    -3.8207 ev

!    total energy              =      -1.00917600 Ry
     total all-electron energy =        -1.009172 Ry
     estimated scf accuracy    <       0.00000086 Ry
     smearing contrib. (-TS)   =      -0.00000000 Ry
     internal energy E=F+TS    =      -1.00917600 Ry

     The total energy is F=E-TS. E is the sum of the following terms:
     one-electron contribution =      -0.85090811 Ry
     hartree contribution      =       0.54074077 Ry
     xc contribution           =      -0.62473173 Ry
     ewald contribution        =      -0.07407606 Ry
     DFT-D3 Dispersion         =      -0.00000002 Ry
     one-center paw contrib.   =      -0.00020085 Ry

     total magnetization       =     1.00 Bohr mag/cell
     absolute magnetization    =     1.00 Bohr mag/cell

     convergence has been achieved in  22 iterations

     negative rho (up, down):  8.587E-05 3.687E-15

     Forces acting on atoms (cartesian axes, Ry/au):

     atom    1 type  4   force =     0.00000000    0.00000000    0.00000000

     Total force =     0.000000     Total SCF correction =     0.093682
     Message from routine punch:
     Nothing written, as per user request (disk_io='none')
 
     init_run     :      3.85s CPU      4.49s WALL (       1 calls)
     electrons    :     52.49s CPU     39.95s WALL (       1 calls)
     forces       :      0.42s CPU      0.35s WALL (       1 calls)
     force_dftd3  :      0.08s CPU      0.07s WALL (       1 calls)

     Called by init_run:
     wfcinit      :      0.02s CPU      0.23s WALL (       1 calls)
     potinit      :      2.06s CPU      2.12s WALL (       1 calls)
     hinit0       :      0.65s CPU      0.89s WALL (       1 calls)

     Called by electrons:
     c_bands      :      0.98s CPU      1.03s WALL (      23 calls)
     sum_band     :      6.29s CPU      6.36s WALL (      23 calls)
     v_of_rho     :      4.09s CPU      3.81s WALL (      23 calls)
     newd         :      5.97s CPU      5.99s WALL (      23 calls)
                                        5.99s GPU  (      23 calls)
     PAW_pot      :      1.18s CPU      0.98s WALL (      23 calls)
     mix_rho      :     15.51s CPU     10.30s WALL (      23 calls)
     energy_dftd3 :      0.00s CPU      0.00s WALL (       1 calls)

     Called by c_bands:
     init_us_2    :      0.02s CPU      0.02s WALL (      47 calls)
     regterg      :      0.67s CPU      0.72s WALL (      23 calls)

     Called by *egterg:
     rdiaghg      :      0.03s CPU      0.04s WALL (     124 calls)
                                        0.04s GPU  (     124 calls)
     h_psi        :      0.48s CPU      0.72s WALL (     126 calls)
                                        0.72s GPU  (     126 calls)
     s_psi        :      0.01s CPU      0.01s WALL (     126 calls)
     g_psi        :      0.00s CPU      0.00s WALL (     102 calls)
                                        0.00s GPU  (     102 calls)

     Called by h_psi:
     h_psi:calbec :      0.11s CPU      0.11s WALL (     126 calls)
                                        0.11s GPU  (     126 calls)
     vloc_psi     :      0.25s CPU      0.49s WALL (     126 calls)
                                        0.49s GPU  (     126 calls)
     add_vuspsi   :      0.01s CPU      0.01s WALL (     126 calls)
                                        0.01s GPU  (     126 calls)

     General routines
     calbec       :      0.11s CPU      0.11s WALL (     153 calls)
     fft          :     10.99s CPU      5.88s WALL (     428 calls)
                                        0.87s GPU  (     382 calls)
     ffts         :      6.26s CPU      4.32s WALL (    2652 calls)
                                        2.02s GPU  (    2606 calls)
     fftw         :      0.14s CPU      0.45s WALL (     321 calls)
                                        0.44s GPU  (     321 calls)
     interpolate  :     15.95s CPU      8.89s WALL (      46 calls)
 
     Parallel routines
 
     PWSCF        :     57.28s CPU     45.38s WALL

 
   This run was terminated on:  10:47:12  15Nov2025            

=------------------------------------------------------------------------------=
   JOB DONE.
=------------------------------------------------------------------------------=
